<?xml version="1.0" encoding="UTF-8"?>

<!-- generated on 2025-11-12 11:04:38 by Eclipse SUMO sumo Version 1.20.0
<configuration xmlns:xsi="http://www.w3.org/2001/XMLSchema-instance" xsi:noNamespaceSchemaLocation="http://sumo.dlr.de/xsd/sumoConfiguration.xsd">

    <input>
        <net-file value="/Users/sohamghadge/Documents/Final_Project/TrafficLearningproject/src/scenarios/4x4_grid/osm.net.xml.gz"/>
        <route-files value="/Users/sohamghadge/Documents/Final_Project/TrafficLearningproject/src/scenarios/4x4_grid/medium_traffic.rou.xml"/>
        <additional-files value="/Users/sohamghadge/Documents/Final_Project/TrafficLearningproject/src/scenarios/4x4_grid/osm.poly.xml.gz,/Users/sohamghadge/Documents/Final_Project/TrafficLearningproject/src/scenarios/4x4_grid/output.add.xml"/>
    </input>

    <output>
        <tripinfo-output value="/Users/sohamghadge/Documents/Final_Project/TrafficLearningproject/src/scenarios/city4x4/medium/tripinfos.xml"/>
        <statistic-output value="/Users/sohamghadge/Documents/Final_Project/TrafficLearningproject/src/scenarios/city4x4/medium/stats.xml"/>
    </output>

    <time>
        <begin value="0"/>
        <end value="3600"/>
        <step-length value="1.0"/>
    </time>

    <processing>
        <ignore-route-errors value="true"/>
        <collision.action value="warn"/>
        <time-to-teleport value="300"/>
        <waiting-time-memory value="1000"/>
        <tls.actuated.jam-threshold value="30"/>
        <emergencydecel.warning-threshold value="4.0"/>
    </processing>

    <routing>
        <device.rerouting.adaptation-steps value="18"/>
        <device.rerouting.adaptation-interval value="10"/>
    </routing>

    <report>
        <verbose value="false"/>
        <no-warnings value="true"/>
        <duration-log.disable value="true"/>
        <duration-log.statistics value="true"/>
        <no-step-log value="true"/>
    </report>

    <traci_server>
        <remote-port value="49712"/>
    </traci_server>

    <random_number>
        <seed value="96"/>
    </random_number>

</configuration>
-->

<tripinfos xmlns:xsi="http://www.w3.org/2001/XMLSchema-instance" xsi:noNamespaceSchemaLocation="http://sumo.dlr.de/xsd/tripinfo_file.xsd">
    <tripinfo id="3" depart="11.00" departLane="4611711#0_0" departPos="5.10" departSpeed="0.00" departDelay="0.20" arrival="79.00" arrivalLane="-1249342904#1_0" arrivalPos="14.12" arrivalSpeed="6.60" duration="68.00" routeLength="426.72" waitingTime="0.00" waitingCount="0" stopTime="0.00" timeLoss="9.23" rerouteNo="1" devices="tripinfo_3 routing_3" vType="DEFAULT_VEHTYPE" speedFactor="0.90" vaporized=""/>
    <tripinfo id="2" depart="8.00" departLane="23017853#2_0" departPos="5.10" departSpeed="0.00" departDelay="0.80" arrival="93.00" arrivalLane="196850609#2_0" arrivalPos="0.20" arrivalSpeed="16.10" duration="85.00" routeLength="737.14" waitingTime="0.00" waitingCount="0" stopTime="0.00" timeLoss="11.73" rerouteNo="1" devices="tripinfo_2 routing_2" vType="DEFAULT_VEHTYPE" speedFactor="1.17" vaporized=""/>
    <tripinfo id="4" depart="15.00" departLane="1149365724#1_0" departPos="5.10" departSpeed="0.00" departDelay="0.60" arrival="96.00" arrivalLane="-1132167289#1_0" arrivalPos="6.38" arrivalSpeed="6.87" duration="81.00" routeLength="545.34" waitingTime="5.00" waitingCount="2" stopTime="0.00" timeLoss="18.26" rerouteNo="1" devices="tripinfo_4 routing_4" vType="DEFAULT_VEHTYPE" speedFactor="0.91" vaporized=""/>
    <tripinfo id="19" depart="69.00" departLane="4588219#1_0" departPos="5.10" departSpeed="0.00" departDelay="0.60" arrival="96.00" arrivalLane="1424634884#4_0" arrivalPos="72.72" arrivalSpeed="13.38" duration="27.00" routeLength="308.49" waitingTime="0.00" waitingCount="0" stopTime="0.00" timeLoss="4.04" rerouteNo="1" devices="tripinfo_19 routing_19" vType="DEFAULT_VEHTYPE" speedFactor="1.05" vaporized=""/>
    <tripinfo id="10" depart="36.00" departLane="375311158#1_0" departPos="5.10" departSpeed="0.00" departDelay="0.00" arrival="98.00" arrivalLane="199847252#2_0" arrivalPos="20.27" arrivalSpeed="11.48" duration="62.00" routeLength="368.64" waitingTime="4.00" waitingCount="1" stopTime="0.00" timeLoss="15.38" rerouteNo="1" devices="tripinfo_10 routing_10" vType="DEFAULT_VEHTYPE" speedFactor="0.88" vaporized=""/>
    <tripinfo id="5" depart="18.00" departLane="-35557161#0_0" departPos="5.10" departSpeed="0.00" departDelay="0.00" arrival="103.00" arrivalLane="1238797610#2_0" arrivalPos="29.31" arrivalSpeed="8.40" duration="85.00" routeLength="773.18" waitingTime="0.00" waitingCount="0" stopTime="0.00" timeLoss="9.54" rerouteNo="1" devices="tripinfo_5 routing_5" vType="DEFAULT_VEHTYPE" speedFactor="1.04" vaporized=""/>
    <tripinfo id="20" depart="72.00" departLane="199847252#1_0" departPos="5.10" departSpeed="0.00" departDelay="0.00" arrival="105.00" arrivalLane="-1136657266_0" arrivalPos="64.21" arrivalSpeed="8.12" duration="33.00" routeLength="219.26" waitingTime="0.00" waitingCount="0" stopTime="0.00" timeLoss="8.20" rerouteNo="1" devices="tripinfo_20 routing_20" vType="DEFAULT_VEHTYPE" speedFactor="0.98" vaporized=""/>
    <tripinfo id="14" depart="51.00" departLane="43376693#2_0" departPos="5.10" departSpeed="0.00" departDelay="0.60" arrival="119.00" arrivalLane="1426897601#1_0" arrivalPos="10.69" arrivalSpeed="9.38" duration="68.00" routeLength="548.58" waitingTime="0.00" waitingCount="0" stopTime="0.00" timeLoss="8.32" rerouteNo="1" devices="tripinfo_14 routing_14" vType="DEFAULT_VEHTYPE" speedFactor="1.10" vaporized=""/>
    <tripinfo id="11" depart="40.00" departLane="-831860726_0" departPos="0.20" departSpeed="0.00" departDelay="0.40" arrival="122.00" arrivalLane="-1426897603#3_0" arrivalPos="0.20" arrivalSpeed="6.73" duration="82.00" routeLength="468.29" waitingTime="0.00" waitingCount="0" stopTime="0.00" timeLoss="11.93" rerouteNo="1" devices="tripinfo_11 routing_11" vType="DEFAULT_VEHTYPE" speedFactor="0.81" vaporized=""/>
    <tripinfo id="17" depart="62.00" departLane="1123184404#0_0" departPos="5.10" departSpeed="0.00" departDelay="0.80" arrival="123.00" arrivalLane="1421185260#1_0" arrivalPos="17.40" arrivalSpeed="14.02" duration="61.00" routeLength="614.29" waitingTime="0.00" waitingCount="0" stopTime="0.00" timeLoss="10.61" rerouteNo="1" devices="tripinfo_17 routing_17" vType="DEFAULT_VEHTYPE" speedFactor="1.07" vaporized=""/>
    <tripinfo id="6" depart="22.00" departLane="-1132164893#0_0" departPos="2.41" departSpeed="0.00" departDelay="0.40" arrival="137.00" arrivalLane="-23017852#1_0" arrivalPos="0.20" arrivalSpeed="8.66" duration="115.00" routeLength="925.60" waitingTime="1.00" waitingCount="1" stopTime="0.00" timeLoss="19.27" rerouteNo="1" devices="tripinfo_6 routing_6" vType="DEFAULT_VEHTYPE" speedFactor="1.05" vaporized=""/>
    <tripinfo id="15" depart="54.00" departLane="375312063#0_0" departPos="5.10" departSpeed="0.00" departDelay="0.00" arrival="140.00" arrivalLane="233833576#0_1" arrivalPos="42.69" arrivalSpeed="13.50" duration="86.00" routeLength="674.19" waitingTime="8.00" waitingCount="3" stopTime="0.00" timeLoss="25.36" rerouteNo="1" devices="tripinfo_15 routing_15" vType="DEFAULT_VEHTYPE" speedFactor="1.01" vaporized=""/>
    <tripinfo id="0" depart="0.00" departLane="168515533#2_0" departPos="5.10" departSpeed="0.00" departDelay="0.00" arrival="146.00" arrivalLane="-1132164863_0" arrivalPos="88.58" arrivalSpeed="6.32" duration="146.00" routeLength="906.22" waitingTime="9.00" waitingCount="3" stopTime="0.00" timeLoss="34.03" rerouteNo="1" devices="tripinfo_0 routing_0" vType="DEFAULT_VEHTYPE" speedFactor="0.85" vaporized=""/>
    <tripinfo id="13" depart="47.00" departLane="-1423958087_0" departPos="0.11" departSpeed="0.00" departDelay="0.20" arrival="148.00" arrivalLane="-1424634880#0_0" arrivalPos="75.78" arrivalSpeed="14.12" duration="101.00" routeLength="869.10" waitingTime="9.00" waitingCount="2" stopTime="0.00" timeLoss="29.31" rerouteNo="1" devices="tripinfo_13 routing_13" vType="DEFAULT_VEHTYPE" speedFactor="1.06" vaporized=""/>
    <tripinfo id="23" depart="83.00" departLane="-1424634884#0_0" departPos="5.10" departSpeed="0.00" departDelay="0.20" arrival="162.00" arrivalLane="-43376693#5_0" arrivalPos="35.34" arrivalSpeed="7.22" duration="79.00" routeLength="569.33" waitingTime="3.00" waitingCount="2" stopTime="0.00" timeLoss="22.29" rerouteNo="1" devices="tripinfo_23 routing_23" vType="DEFAULT_VEHTYPE" speedFactor="1.02" vaporized=""/>
    <tripinfo id="8" depart="29.00" departLane="-35557161#1_0" departPos="5.10" departSpeed="0.00" departDelay="0.20" arrival="163.00" arrivalLane="1426079060#1_0" arrivalPos="2.48" arrivalSpeed="5.38" duration="134.00" routeLength="1028.26" waitingTime="2.00" waitingCount="2" stopTime="0.00" timeLoss="32.07" rerouteNo="1" devices="tripinfo_8 routing_8" vType="DEFAULT_VEHTYPE" speedFactor="0.98" vaporized=""/>
    <tripinfo id="25" depart="90.00" departLane="1105574289#2_0" departPos="5.10" departSpeed="0.00" departDelay="0.00" arrival="164.00" arrivalLane="-23017853#0_0" arrivalPos="6.86" arrivalSpeed="6.75" duration="74.00" routeLength="466.68" waitingTime="0.00" waitingCount="0" stopTime="0.00" timeLoss="9.23" rerouteNo="1" devices="tripinfo_25 routing_25" vType="DEFAULT_VEHTYPE" speedFactor="0.89" vaporized=""/>
    <tripinfo id="12" depart="44.00" departLane="66071366#2_0" departPos="5.10" departSpeed="0.00" departDelay="0.80" arrival="171.00" arrivalLane="-47755711#0_0" arrivalPos="5.09" arrivalSpeed="6.80" duration="127.00" routeLength="935.69" waitingTime="4.00" waitingCount="1" stopTime="0.00" timeLoss="30.15" rerouteNo="1" devices="tripinfo_12 routing_12" vType="DEFAULT_VEHTYPE" speedFactor="0.93" vaporized=""/>
    <tripinfo id="33" depart="119.00" departLane="-375311153#0_0" departPos="5.10" departSpeed="0.00" departDelay="0.20" arrival="176.00" arrivalLane="-1132167289#1_0" arrivalPos="6.38" arrivalSpeed="9.16" duration="57.00" routeLength="463.51" waitingTime="0.00" waitingCount="0" stopTime="0.00" timeLoss="7.12" rerouteNo="1" devices="tripinfo_33 routing_33" vType="DEFAULT_VEHTYPE" speedFactor="1.12" vaporized=""/>
    <tripinfo id="1" depart="4.00" departLane="-4611711#1_0" departPos="5.10" departSpeed="0.00" departDelay="0.40" arrival="178.00" arrivalLane="-24509318#1_0" arrivalPos="61.13" arrivalSpeed="8.37" duration="174.00" routeLength="1355.34" waitingTime="0.00" waitingCount="0" stopTime="0.00" timeLoss="18.39" rerouteNo="1" devices="tripinfo_1 routing_1" vType="DEFAULT_VEHTYPE" speedFactor="1.06" vaporized=""/>
    <tripinfo id="26" depart="94.00" departLane="-4611708#3_0" departPos="5.10" departSpeed="0.00" departDelay="0.40" arrival="178.00" arrivalLane="47707170#3_0" arrivalPos="7.62" arrivalSpeed="7.39" duration="84.00" routeLength="601.13" waitingTime="0.00" waitingCount="0" stopTime="0.00" timeLoss="10.56" rerouteNo="1" devices="tripinfo_26 routing_26" vType="DEFAULT_VEHTYPE" speedFactor="0.99" vaporized=""/>
    <tripinfo id="40" depart="144.00" departLane="1426079060#0_0" departPos="0.20" departSpeed="0.00" departDelay="0.00" arrival="190.00" arrivalLane="-375459783#0_0" arrivalPos="65.61" arrivalSpeed="8.85" duration="46.00" routeLength="404.23" waitingTime="0.00" waitingCount="0" stopTime="0.00" timeLoss="6.87" rerouteNo="1" devices="tripinfo_40 routing_40" vType="DEFAULT_VEHTYPE" speedFactor="1.10" vaporized=""/>
    <tripinfo id="39" depart="141.00" departLane="-4611708#3_0" departPos="5.10" departSpeed="0.00" departDelay="0.60" arrival="196.00" arrivalLane="-35557161#2_0" arrivalPos="84.50" arrivalSpeed="6.31" duration="55.00" routeLength="307.76" waitingTime="0.00" waitingCount="0" stopTime="0.00" timeLoss="7.33" rerouteNo="1" devices="tripinfo_39 routing_39" vType="DEFAULT_VEHTYPE" speedFactor="0.79" vaporized=""/>
    <tripinfo id="16" depart="58.00" departLane="1421185267#3_0" departPos="5.10" departSpeed="0.00" departDelay="0.40" arrival="197.00" arrivalLane="66071366#3_0" arrivalPos="66.22" arrivalSpeed="7.13" duration="139.00" routeLength="1266.66" waitingTime="4.00" waitingCount="1" stopTime="0.00" timeLoss="29.28" rerouteNo="1" devices="tripinfo_16 routing_16" vType="DEFAULT_VEHTYPE" speedFactor="1.12" vaporized=""/>
    <tripinfo id="9" depart="33.00" departLane="375312063#0_0" departPos="5.10" departSpeed="0.00" departDelay="0.60" arrival="204.00" arrivalLane="-1009114665#2_0" arrivalPos="21.02" arrivalSpeed="7.21" duration="171.00" routeLength="1248.89" waitingTime="0.00" waitingCount="0" stopTime="0.00" timeLoss="21.87" rerouteNo="1" devices="tripinfo_9 routing_9" vType="DEFAULT_VEHTYPE" speedFactor="1.01" vaporized=""/>
    <tripinfo id="29" depart="105.00" departLane="-23017852#1_0" departPos="0.20" departSpeed="0.00" departDelay="0.60" arrival="206.00" arrivalLane="-840229277#0_0" arrivalPos="108.34" arrivalSpeed="8.36" duration="101.00" routeLength="844.73" waitingTime="0.00" waitingCount="0" stopTime="0.00" timeLoss="9.99" rerouteNo="1" devices="tripinfo_29 routing_29" vType="DEFAULT_VEHTYPE" speedFactor="1.12" vaporized=""/>
    <tripinfo id="7" depart="26.00" departLane="171423001#0_0" departPos="0.20" departSpeed="0.00" departDelay="0.80" arrival="208.00" arrivalLane="1421185260#1_0" arrivalPos="17.40" arrivalSpeed="13.00" duration="182.00" routeLength="1460.13" waitingTime="20.00" waitingCount="5" stopTime="0.00" timeLoss="51.20" rerouteNo="1" devices="tripinfo_7 routing_7" vType="DEFAULT_VEHTYPE" speedFactor="0.98" vaporized=""/>
    <tripinfo id="31" depart="112.00" departLane="1426079060#0_0" departPos="0.20" departSpeed="0.00" departDelay="0.40" arrival="211.00" arrivalLane="196850609#2_0" arrivalPos="0.20" arrivalSpeed="12.85" duration="99.00" routeLength="761.04" waitingTime="11.00" waitingCount="3" stopTime="0.00" timeLoss="34.78" rerouteNo="1" devices="tripinfo_31 routing_31" vType="DEFAULT_VEHTYPE" speedFactor="0.98" vaporized=""/>
    <tripinfo id="22" depart="80.00" departLane="-1423958086#0_0" departPos="5.10" departSpeed="0.00" departDelay="0.80" arrival="212.00" arrivalLane="-327462543#1_0" arrivalPos="35.93" arrivalSpeed="8.11" duration="132.00" routeLength="1112.37" waitingTime="9.00" waitingCount="3" stopTime="0.00" timeLoss="35.37" rerouteNo="1" devices="tripinfo_22 routing_22" vType="DEFAULT_VEHTYPE" speedFactor="0.99" vaporized=""/>
    <tripinfo id="34" depart="123.00" departLane="-47755711#1_0" departPos="5.10" departSpeed="0.00" departDelay="0.60" arrival="213.00" arrivalLane="-43376693#1_0" arrivalPos="33.61" arrivalSpeed="6.96" duration="90.00" routeLength="632.30" waitingTime="2.00" waitingCount="1" stopTime="0.00" timeLoss="16.65" rerouteNo="1" devices="tripinfo_34 routing_34" vType="DEFAULT_VEHTYPE" speedFactor="0.99" vaporized=""/>
    <tripinfo id="27" depart="98.00" departLane="171423001#0_0" departPos="0.20" departSpeed="0.00" departDelay="0.80" arrival="214.00" arrivalLane="147066248#1_0" arrivalPos="29.71" arrivalSpeed="2.74" duration="116.00" routeLength="983.55" waitingTime="0.00" waitingCount="0" stopTime="0.00" timeLoss="15.12" rerouteNo="1" devices="tripinfo_27 routing_27" vType="DEFAULT_VEHTYPE" speedFactor="1.07" vaporized=""/>
    <tripinfo id="46" depart="166.00" departLane="375311155#0_0" departPos="5.10" departSpeed="0.00" departDelay="0.40" arrival="217.00" arrivalLane="110786129#1_2" arrivalPos="47.51" arrivalSpeed="6.70" duration="51.00" routeLength="230.30" waitingTime="9.00" waitingCount="2" stopTime="0.00" timeLoss="20.31" rerouteNo="1" devices="tripinfo_46 routing_46" vType="DEFAULT_VEHTYPE" speedFactor="0.95" vaporized=""/>
    <tripinfo id="18" depart="65.00" departLane="389101374#2_0" departPos="5.10" departSpeed="0.00" departDelay="0.20" arrival="220.00" arrivalLane="147066248#4_0" arrivalPos="19.76" arrivalSpeed="2.12" duration="155.00" routeLength="963.90" waitingTime="0.00" waitingCount="0" stopTime="0.00" timeLoss="18.37" rerouteNo="1" devices="tripinfo_18 routing_18" vType="DEFAULT_VEHTYPE" speedFactor="1.01" vaporized=""/>
    <tripinfo id="44" depart="159.00" departLane="-1423958087_0" departPos="0.11" departSpeed="0.00" departDelay="0.60" arrival="223.00" arrivalLane="-1151333056_0" arrivalPos="40.54" arrivalSpeed="6.17" duration="64.00" routeLength="416.20" waitingTime="1.00" waitingCount="1" stopTime="0.00" timeLoss="8.46" rerouteNo="1" devices="tripinfo_44 routing_44" vType="DEFAULT_VEHTYPE" speedFactor="0.84" vaporized=""/>
    <tripinfo id="50" depart="180.00" departLane="-1105574289#1_0" departPos="4.06" departSpeed="0.00" departDelay="0.00" arrival="231.00" arrivalLane="23017853#0_0" arrivalPos="10.41" arrivalSpeed="6.76" duration="51.00" routeLength="318.79" waitingTime="0.00" waitingCount="0" stopTime="0.00" timeLoss="5.20" rerouteNo="1" devices="tripinfo_50 routing_50" vType="DEFAULT_VEHTYPE" speedFactor="0.84" vaporized=""/>
    <tripinfo id="28" depart="101.00" departLane="-23017852#4_0" departPos="5.10" departSpeed="0.00" departDelay="0.20" arrival="236.00" arrivalLane="233833576#0_1" arrivalPos="42.69" arrivalSpeed="13.58" duration="135.00" routeLength="1143.96" waitingTime="0.00" waitingCount="0" stopTime="0.00" timeLoss="20.23" rerouteNo="1" devices="tripinfo_28 routing_28" vType="DEFAULT_VEHTYPE" speedFactor="1.03" vaporized=""/>
    <tripinfo id="62" depart="224.00" departLane="-1009114665#0_0" departPos="0.20" departSpeed="0.00" departDelay="0.80" arrival="245.00" arrivalLane="-4611714#4_0" arrivalPos="49.49" arrivalSpeed="6.95" duration="21.00" routeLength="124.84" waitingTime="0.00" waitingCount="0" stopTime="0.00" timeLoss="2.51" rerouteNo="1" devices="tripinfo_62 routing_62" vType="DEFAULT_VEHTYPE" speedFactor="0.85" vaporized=""/>
    <tripinfo id="65" depart="234.00" departLane="-4773029#1_0" departPos="5.10" departSpeed="0.00" departDelay="0.00" arrival="248.00" arrivalLane="-1159149106#0_0" arrivalPos="1.92" arrivalSpeed="8.90" duration="14.00" routeLength="117.41" waitingTime="0.00" waitingCount="0" stopTime="0.00" timeLoss="3.69" rerouteNo="1" devices="tripinfo_65 routing_65" vType="DEFAULT_VEHTYPE" speedFactor="1.07" vaporized=""/>
    <tripinfo id="57" depart="206.00" departLane="4611713#2_0" departPos="2.68" departSpeed="0.00" departDelay="0.80" arrival="254.00" arrivalLane="43376693#5_0" arrivalPos="36.19" arrivalSpeed="8.95" duration="48.00" routeLength="390.59" waitingTime="0.00" waitingCount="0" stopTime="0.00" timeLoss="5.15" rerouteNo="1" devices="tripinfo_57 routing_57" vType="DEFAULT_VEHTYPE" speedFactor="1.11" vaporized=""/>
    <tripinfo id="49" depart="177.00" departLane="81113584#0_0" departPos="5.10" departSpeed="0.00" departDelay="0.60" arrival="263.00" arrivalLane="43376693#1_0" arrivalPos="33.61" arrivalSpeed="7.89" duration="86.00" routeLength="610.39" waitingTime="4.00" waitingCount="1" stopTime="0.00" timeLoss="19.01" rerouteNo="1" devices="tripinfo_49 routing_49" vType="DEFAULT_VEHTYPE" speedFactor="1.04" vaporized=""/>
    <tripinfo id="41" depart="148.00" departLane="1426897598#3_0" departPos="5.10" departSpeed="0.00" departDelay="0.40" arrival="266.00" arrivalLane="4611711#1_0" arrivalPos="55.25" arrivalSpeed="5.22" duration="118.00" routeLength="738.04" waitingTime="0.00" waitingCount="0" stopTime="0.00" timeLoss="14.39" rerouteNo="1" devices="tripinfo_41 routing_41" vType="DEFAULT_VEHTYPE" speedFactor="0.75" vaporized=""/>
    <tripinfo id="30" depart="108.00" departLane="831860726_0" departPos="0.20" departSpeed="0.00" departDelay="0.00" arrival="271.00" arrivalLane="168514765#1_0" arrivalPos="15.53" arrivalSpeed="13.09" duration="163.00" routeLength="1431.10" waitingTime="3.00" waitingCount="1" stopTime="0.00" timeLoss="18.93" rerouteNo="1" devices="tripinfo_30 routing_30" vType="DEFAULT_VEHTYPE" speedFactor="0.97" vaporized=""/>
    <tripinfo id="73" depart="263.00" departLane="1421427239#0_0" departPos="5.10" departSpeed="0.00" departDelay="0.20" arrival="272.00" arrivalLane="233833576#0_0" arrivalPos="42.69" arrivalSpeed="12.65" duration="9.00" routeLength="73.18" waitingTime="0.00" waitingCount="0" stopTime="0.00" timeLoss="2.46" rerouteNo="1" devices="tripinfo_73 routing_73" vType="DEFAULT_VEHTYPE" speedFactor="0.95" vaporized=""/>
    <tripinfo id="38" depart="137.00" departLane="4611714#1_0" departPos="5.10" departSpeed="0.00" departDelay="0.20" arrival="279.00" arrivalLane="1149365724#2_0" arrivalPos="0.20" arrivalSpeed="7.90" duration="142.00" routeLength="1236.63" waitingTime="0.00" waitingCount="0" stopTime="0.00" timeLoss="13.07" rerouteNo="1" devices="tripinfo_38 routing_38" vType="DEFAULT_VEHTYPE" speedFactor="1.03" vaporized=""/>
    <tripinfo id="53" depart="193.00" departLane="-1426120125#0_0" departPos="5.10" departSpeed="0.00" departDelay="2.20" arrival="285.00" arrivalLane="1127602092#1_0" arrivalPos="22.04" arrivalSpeed="7.21" duration="92.00" routeLength="614.49" waitingTime="0.00" waitingCount="0" stopTime="0.00" timeLoss="9.03" rerouteNo="1" devices="tripinfo_53 routing_53" vType="DEFAULT_VEHTYPE" speedFactor="0.89" vaporized=""/>
    <tripinfo id="35" depart="127.00" departLane="-327462543#1_0" departPos="5.10" departSpeed="0.00" departDelay="1.00" arrival="291.00" arrivalLane="4773029#1_0" arrivalPos="12.90" arrivalSpeed="6.15" duration="164.00" routeLength="1308.63" waitingTime="0.00" waitingCount="0" stopTime="0.00" timeLoss="19.58" rerouteNo="1" devices="tripinfo_35 routing_35" vType="DEFAULT_VEHTYPE" speedFactor="0.86" vaporized=""/>
    <tripinfo id="37" depart="134.00" departLane="171423001#0_0" departPos="0.20" departSpeed="0.00" departDelay="0.80" arrival="292.00" arrivalLane="1040940511_1" arrivalPos="6.47" arrivalSpeed="14.30" duration="158.00" routeLength="1395.54" waitingTime="7.00" waitingCount="4" stopTime="0.00" timeLoss="47.47" rerouteNo="1" devices="tripinfo_37 routing_37" vType="DEFAULT_VEHTYPE" speedFactor="1.11" vaporized=""/>
    <tripinfo id="54" depart="195.00" departLane="1151333058#0_0" departPos="0.20" departSpeed="0.00" departDelay="0.60" arrival="293.00" arrivalLane="4773029#1_0" arrivalPos="12.90" arrivalSpeed="9.18" duration="98.00" routeLength="830.28" waitingTime="0.00" waitingCount="0" stopTime="0.00" timeLoss="15.62" rerouteNo="1" devices="tripinfo_54 routing_54" vType="DEFAULT_VEHTYPE" speedFactor="1.12" vaporized=""/>
    <tripinfo id="59" depart="213.00" departLane="147066248#3_0" departPos="5.10" departSpeed="0.00" departDelay="0.60" arrival="296.00" arrivalLane="-1426897603#0_0" arrivalPos="0.20" arrivalSpeed="8.46" duration="83.00" routeLength="527.21" waitingTime="0.00" waitingCount="0" stopTime="0.00" timeLoss="14.53" rerouteNo="1" devices="tripinfo_59 routing_59" vType="DEFAULT_VEHTYPE" speedFactor="1.16" vaporized=""/>
    <tripinfo id="32" depart="116.00" departLane="43346200_0" departPos="0.86" departSpeed="0.00" departDelay="0.80" arrival="311.00" arrivalLane="327462543#0_0" arrivalPos="35.92" arrivalSpeed="7.19" duration="195.00" routeLength="1527.83" waitingTime="5.00" waitingCount="2" stopTime="0.00" timeLoss="32.70" rerouteNo="1" devices="tripinfo_32 routing_32" vType="DEFAULT_VEHTYPE" speedFactor="0.88" vaporized=""/>
    <tripinfo id="48" depart="173.00" departLane="840229277#1_0" departPos="0.60" departSpeed="0.00" departDelay="0.20" arrival="312.00" arrivalLane="1418921820#3_0" arrivalPos="3.55" arrivalSpeed="6.48" duration="139.00" routeLength="984.54" waitingTime="5.00" waitingCount="1" stopTime="0.00" timeLoss="20.72" rerouteNo="1" devices="tripinfo_48 routing_48" vType="DEFAULT_VEHTYPE" speedFactor="0.86" vaporized=""/>
    <tripinfo id="81" depart="292.00" departLane="-375311153#0_0" departPos="5.10" departSpeed="0.00" departDelay="0.40" arrival="314.00" arrivalLane="4611712#2_0" arrivalPos="3.24" arrivalSpeed="9.21" duration="22.00" routeLength="160.96" waitingTime="0.00" waitingCount="0" stopTime="0.00" timeLoss="4.71" rerouteNo="1" devices="tripinfo_81 routing_81" vType="DEFAULT_VEHTYPE" speedFactor="1.19" vaporized=""/>
    <tripinfo id="69" depart="249.00" departLane="35557143#3_0" departPos="5.10" departSpeed="0.00" departDelay="0.60" arrival="319.00" arrivalLane="-1426216315#0_0" arrivalPos="26.88" arrivalSpeed="7.80" duration="70.00" routeLength="477.32" waitingTime="0.00" waitingCount="0" stopTime="0.00" timeLoss="7.88" rerouteNo="1" devices="tripinfo_69 routing_69" vType="DEFAULT_VEHTYPE" speedFactor="0.94" vaporized=""/>
    <tripinfo id="42" depart="152.00" departLane="1132167289#0_0" departPos="5.10" departSpeed="0.00" departDelay="0.80" arrival="321.00" arrivalLane="-24509317#1_0" arrivalPos="40.13" arrivalSpeed="8.23" duration="169.00" routeLength="1165.63" waitingTime="5.00" waitingCount="1" stopTime="0.00" timeLoss="42.15" rerouteNo="1" devices="tripinfo_42 routing_42" vType="DEFAULT_VEHTYPE" speedFactor="1.10" vaporized=""/>
    <tripinfo id="67" depart="242.00" departLane="-1423958087_0" departPos="0.11" departSpeed="0.00" departDelay="0.80" arrival="327.00" arrivalLane="1195383150#1_0" arrivalPos="19.69" arrivalSpeed="8.39" duration="85.00" routeLength="636.00" waitingTime="9.00" waitingCount="1" stopTime="0.00" timeLoss="17.32" rerouteNo="1" devices="tripinfo_67 routing_67" vType="DEFAULT_VEHTYPE" speedFactor="1.14" vaporized=""/>
    <tripinfo id="43" depart="155.00" departLane="884209962#1_0" departPos="5.10" departSpeed="0.00" departDelay="0.20" arrival="329.00" arrivalLane="1238797610#4_0" arrivalPos="4.06" arrivalSpeed="7.78" duration="174.00" routeLength="1178.84" waitingTime="2.00" waitingCount="1" stopTime="0.00" timeLoss="39.12" rerouteNo="1" devices="tripinfo_43 routing_43" vType="DEFAULT_VEHTYPE" speedFactor="1.06" vaporized=""/>
    <tripinfo id="52" depart="188.00" departLane="-4611708#3_0" departPos="5.10" departSpeed="0.00" departDelay="0.80" arrival="329.00" arrivalLane="168514765#1_0" arrivalPos="15.53" arrivalSpeed="13.35" duration="141.00" routeLength="1052.79" waitingTime="10.00" waitingCount="2" stopTime="0.00" timeLoss="30.33" rerouteNo="1" devices="tripinfo_52 routing_52" vType="DEFAULT_VEHTYPE" speedFactor="0.98" vaporized=""/>
    <tripinfo id="64" depart="231.00" departLane="4611708#1_0" departPos="5.10" departSpeed="0.00" departDelay="0.60" arrival="336.00" arrivalLane="389101373#1_0" arrivalPos="7.66" arrivalSpeed="6.96" duration="105.00" routeLength="792.16" waitingTime="0.00" waitingCount="0" stopTime="0.00" timeLoss="16.64" rerouteNo="1" devices="tripinfo_64 routing_64" vType="DEFAULT_VEHTYPE" speedFactor="1.09" vaporized=""/>
    <tripinfo id="56" depart="202.00" departLane="1238797610#3_0" departPos="5.10" departSpeed="0.00" departDelay="0.40" arrival="337.00" arrivalLane="-147066248#9_0" arrivalPos="17.17" arrivalSpeed="1.90" duration="135.00" routeLength="712.53" waitingTime="1.00" waitingCount="1" stopTime="0.00" timeLoss="22.22" rerouteNo="1" devices="tripinfo_56 routing_56" vType="DEFAULT_VEHTYPE" speedFactor="0.81" vaporized=""/>
    <tripinfo id="72" depart="260.00" departLane="1149365724#1_0" departPos="5.10" departSpeed="0.00" departDelay="0.80" arrival="337.00" arrivalLane="-23017853#1_0" arrivalPos="14.48" arrivalSpeed="7.70" duration="77.00" routeLength="545.30" waitingTime="0.00" waitingCount="0" stopTime="0.00" timeLoss="7.53" rerouteNo="1" devices="tripinfo_72 routing_72" vType="DEFAULT_VEHTYPE" speedFactor="0.95" vaporized=""/>
    <tripinfo id="47" depart="170.00" departLane="-1195383150#2_0" departPos="5.10" departSpeed="0.00" departDelay="0.80" arrival="342.00" arrivalLane="-840229277#1_0" arrivalPos="0.60" arrivalSpeed="6.07" duration="172.00" routeLength="1279.60" waitingTime="0.00" waitingCount="0" stopTime="0.00" timeLoss="17.60" rerouteNo="1" devices="tripinfo_47 routing_47" vType="DEFAULT_VEHTYPE" speedFactor="0.89" vaporized=""/>
    <tripinfo id="58" depart="209.00" departLane="-4611718#2_0" departPos="5.10" departSpeed="0.00" departDelay="0.20" arrival="346.00" arrivalLane="16374191#1_1" arrivalPos="29.27" arrivalSpeed="6.20" duration="137.00" routeLength="796.62" waitingTime="3.00" waitingCount="2" stopTime="0.00" timeLoss="26.90" rerouteNo="1" devices="tripinfo_58 routing_58" vType="DEFAULT_VEHTYPE" speedFactor="0.89" vaporized=""/>
    <tripinfo id="61" depart="220.00" departLane="375311153#0_0" departPos="5.10" departSpeed="0.00" departDelay="0.40" arrival="346.00" arrivalLane="1418921820#3_0" arrivalPos="3.55" arrivalSpeed="7.11" duration="126.00" routeLength="831.04" waitingTime="9.00" waitingCount="2" stopTime="0.00" timeLoss="28.52" rerouteNo="1" devices="tripinfo_61 routing_61" vType="DEFAULT_VEHTYPE" speedFactor="0.86" vaporized=""/>
    <tripinfo id="71" depart="256.00" departLane="-4611708#3_0" departPos="5.10" departSpeed="0.00" departDelay="0.40" arrival="348.00" arrivalLane="4588219#0_0" arrivalPos="29.05" arrivalSpeed="7.88" duration="92.00" routeLength="678.96" waitingTime="1.00" waitingCount="1" stopTime="0.00" timeLoss="14.99" rerouteNo="1" devices="tripinfo_71 routing_71" vType="DEFAULT_VEHTYPE" speedFactor="1.02" vaporized=""/>
    <tripinfo id="82" depart="296.00" departLane="4588219#0_0" departPos="5.10" departSpeed="0.00" departDelay="0.80" arrival="349.00" arrivalLane="-1187575246_0" arrivalPos="11.04" arrivalSpeed="8.76" duration="53.00" routeLength="450.72" waitingTime="0.00" waitingCount="0" stopTime="0.00" timeLoss="8.59" rerouteNo="1" devices="tripinfo_82 routing_82" vType="DEFAULT_VEHTYPE" speedFactor="1.07" vaporized=""/>
    <tripinfo id="77" depart="278.00" departLane="-1426216316#0_0" departPos="5.10" departSpeed="0.00" departDelay="0.80" arrival="352.00" arrivalLane="-24997595#0_0" arrivalPos="64.86" arrivalSpeed="8.79" duration="74.00" routeLength="561.08" waitingTime="2.00" waitingCount="1" stopTime="0.00" timeLoss="11.00" rerouteNo="1" devices="tripinfo_77 routing_77" vType="DEFAULT_VEHTYPE" speedFactor="1.08" vaporized=""/>