<?xml version="1.0" encoding="UTF-8"?>

<!-- generated on 2025-11-12 06:35:44 by Eclipse SUMO GUI Version 1.20.0
<configuration xmlns:xsi="http://www.w3.org/2001/XMLSchema-instance" xsi:noNamespaceSchemaLocation="http://sumo.dlr.de/xsd/sumoConfiguration.xsd">

    <input>
        <net-file value="/Users/sohamghadge/Documents/Final_Project/TrafficLearningproject/src/scenarios/4x4_grid/osm.net.xml.gz"/>
        <route-files value="/Users/sohamghadge/Documents/Final_Project/TrafficLearningproject/src/scenarios/4x4_grid/high_traffic.rou.xml"/>
        <additional-files value="/Users/sohamghadge/Documents/Final_Project/TrafficLearningproject/src/scenarios/4x4_grid/osm.poly.xml.gz,/Users/sohamghadge/Documents/Final_Project/TrafficLearningproject/src/scenarios/4x4_grid/output.add.xml"/>
    </input>

    <output>
        <tripinfo-output value="/Users/sohamghadge/Documents/Final_Project/TrafficLearningproject/src/scenarios/city4x4/high/tripinfos.xml"/>
        <statistic-output value="/Users/sohamghadge/Documents/Final_Project/TrafficLearningproject/src/scenarios/city4x4/high/stats.xml"/>
    </output>

    <time>
        <begin value="0"/>
        <end value="3600"/>
    </time>

    <processing>
        <ignore-route-errors value="true"/>
        <tls.actuated.jam-threshold value="30"/>
    </processing>

    <routing>
        <device.rerouting.adaptation-steps value="18"/>
        <device.rerouting.adaptation-interval value="10"/>
    </routing>

    <report>
        <verbose value="false"/>
        <duration-log.statistics value="true"/>
        <no-step-log value="true"/>
    </report>

</configuration>
-->

<tripinfos xmlns:xsi="http://www.w3.org/2001/XMLSchema-instance" xsi:noNamespaceSchemaLocation="http://sumo.dlr.de/xsd/tripinfo_file.xsd">
    <tripinfo id="3" depart="6.00" departLane="4611711#0_0" departPos="5.10" departSpeed="0.00" departDelay="0.00" arrival="63.00" arrivalLane="-1249342904#1_0" arrivalPos="14.12" arrivalSpeed="7.84" duration="57.00" routeLength="426.72" waitingTime="0.00" waitingCount="0" stopTime="0.00" timeLoss="8.67" rerouteNo="1" devices="tripinfo_3 routing_3" vType="DEFAULT_VEHTYPE" speedFactor="1.08" vaporized=""/>
    <tripinfo id="19" depart="38.00" departLane="4588219#1_0" departPos="5.10" departSpeed="0.00" departDelay="0.00" arrival="74.00" arrivalLane="1424634884#4_0" arrivalPos="72.72" arrivalSpeed="15.52" duration="36.00" routeLength="308.49" waitingTime="5.00" waitingCount="1" stopTime="0.00" timeLoss="14.66" rerouteNo="1" devices="tripinfo_19 routing_19" vType="DEFAULT_VEHTYPE" speedFactor="1.16" vaporized=""/>
    <tripinfo id="20" depart="40.00" departLane="199847252#1_0" departPos="5.10" departSpeed="0.00" departDelay="0.00" arrival="75.00" arrivalLane="-1136657266_0" arrivalPos="64.21" arrivalSpeed="7.70" duration="35.00" routeLength="219.26" waitingTime="2.00" waitingCount="1" stopTime="0.00" timeLoss="10.98" rerouteNo="1" devices="tripinfo_20 routing_20" vType="DEFAULT_VEHTYPE" speedFactor="1.02" vaporized=""/>
    <tripinfo id="4" depart="8.00" departLane="1149365724#1_0" departPos="5.10" departSpeed="0.00" departDelay="0.00" arrival="76.00" arrivalLane="-1132167289#1_0" arrivalPos="6.38" arrivalSpeed="7.97" duration="68.00" routeLength="545.34" waitingTime="2.00" waitingCount="1" stopTime="0.00" timeLoss="13.05" rerouteNo="1" devices="tripinfo_4 routing_4" vType="DEFAULT_VEHTYPE" speedFactor="1.03" vaporized=""/>
    <tripinfo id="10" depart="20.00" departLane="375311158#1_0" departPos="5.10" departSpeed="0.00" departDelay="0.00" arrival="78.00" arrivalLane="199847252#2_0" arrivalPos="20.27" arrivalSpeed="14.76" duration="58.00" routeLength="368.64" waitingTime="11.00" waitingCount="1" stopTime="0.00" timeLoss="20.48" rerouteNo="1" devices="tripinfo_10 routing_10" vType="DEFAULT_VEHTYPE" speedFactor="1.09" vaporized=""/>
    <tripinfo id="11" depart="22.00" departLane="-831860726_0" departPos="0.20" departSpeed="0.00" departDelay="0.00" arrival="87.00" arrivalLane="-1426897603#3_0" arrivalPos="0.20" arrivalSpeed="7.74" duration="65.00" routeLength="468.29" waitingTime="0.00" waitingCount="0" stopTime="0.00" timeLoss="9.38" rerouteNo="1" devices="tripinfo_11 routing_11" vType="DEFAULT_VEHTYPE" speedFactor="1.03" vaporized=""/>
    <tripinfo id="2" depart="4.00" departLane="23017853#2_0" departPos="5.10" departSpeed="0.00" departDelay="0.00" arrival="108.00" arrivalLane="196850609#2_0" arrivalPos="0.20" arrivalSpeed="13.86" duration="104.00" routeLength="737.14" waitingTime="4.00" waitingCount="1" stopTime="0.00" timeLoss="19.05" rerouteNo="1" devices="tripinfo_2 routing_2" vType="DEFAULT_VEHTYPE" speedFactor="1.01" vaporized=""/>
    <tripinfo id="14" depart="28.00" departLane="43376693#2_0" departPos="5.10" departSpeed="0.00" departDelay="0.00" arrival="111.00" arrivalLane="1426897601#1_0" arrivalPos="10.69" arrivalSpeed="9.92" duration="83.00" routeLength="548.58" waitingTime="0.00" waitingCount="0" stopTime="0.00" timeLoss="16.88" rerouteNo="1" devices="tripinfo_14 routing_14" vType="DEFAULT_VEHTYPE" speedFactor="0.99" vaporized=""/>
    <tripinfo id="17" depart="34.00" departLane="1123184404#0_0" departPos="5.10" departSpeed="0.00" departDelay="0.00" arrival="113.00" arrivalLane="1421185260#1_0" arrivalPos="17.40" arrivalSpeed="12.28" duration="79.00" routeLength="614.29" waitingTime="7.00" waitingCount="2" stopTime="0.00" timeLoss="22.43" rerouteNo="1" devices="tripinfo_17 routing_17" vType="DEFAULT_VEHTYPE" speedFactor="0.94" vaporized=""/>
    <tripinfo id="5" depart="10.00" departLane="-35557161#0_0" departPos="5.10" departSpeed="0.00" departDelay="0.00" arrival="116.00" arrivalLane="1238797610#2_0" arrivalPos="29.31" arrivalSpeed="6.22" duration="106.00" routeLength="773.18" waitingTime="0.00" waitingCount="0" stopTime="0.00" timeLoss="11.64" rerouteNo="1" devices="tripinfo_5 routing_5" vType="DEFAULT_VEHTYPE" speedFactor="0.83" vaporized=""/>
    <tripinfo id="23" depart="48.00" departLane="-1424634884#0_0" departPos="5.10" departSpeed="0.00" departDelay="2.00" arrival="120.00" arrivalLane="-43376693#5_0" arrivalPos="35.34" arrivalSpeed="7.38" duration="72.00" routeLength="569.33" waitingTime="0.00" waitingCount="0" stopTime="0.00" timeLoss="13.02" rerouteNo="1" devices="tripinfo_23 routing_23" vType="DEFAULT_VEHTYPE" speedFactor="0.97" vaporized=""/>
    <tripinfo id="15" depart="30.00" departLane="375312063#0_0" departPos="5.10" departSpeed="0.00" departDelay="0.00" arrival="121.00" arrivalLane="233833576#0_1" arrivalPos="42.69" arrivalSpeed="12.74" duration="91.00" routeLength="674.19" waitingTime="4.00" waitingCount="2" stopTime="0.00" timeLoss="24.33" rerouteNo="1" devices="tripinfo_15 routing_15" vType="DEFAULT_VEHTYPE" speedFactor="0.93" vaporized=""/>
    <tripinfo id="13" depart="26.00" departLane="-1423958087_0" departPos="0.11" departSpeed="0.00" departDelay="0.00" arrival="122.00" arrivalLane="-1424634880#0_0" arrivalPos="75.78" arrivalSpeed="14.89" duration="96.00" routeLength="869.10" waitingTime="13.00" waitingCount="2" stopTime="0.00" timeLoss="28.14" rerouteNo="1" devices="tripinfo_13 routing_13" vType="DEFAULT_VEHTYPE" speedFactor="1.12" vaporized=""/>
    <tripinfo id="0" depart="0.00" departLane="168515533#2_0" departPos="5.10" departSpeed="0.00" departDelay="0.00" arrival="123.00" arrivalLane="-1132164863_0" arrivalPos="88.58" arrivalSpeed="7.94" duration="123.00" routeLength="906.22" waitingTime="17.00" waitingCount="1" stopTime="0.00" timeLoss="32.71" rerouteNo="1" devices="tripinfo_0 routing_0" vType="DEFAULT_VEHTYPE" speedFactor="1.06" vaporized=""/>
    <tripinfo id="25" depart="50.00" departLane="1105574289#2_0" departPos="5.10" departSpeed="0.00" departDelay="0.00" arrival="123.00" arrivalLane="-23017853#0_0" arrivalPos="6.86" arrivalSpeed="7.10" duration="73.00" routeLength="466.68" waitingTime="0.00" waitingCount="0" stopTime="0.00" timeLoss="8.20" rerouteNo="1" devices="tripinfo_25 routing_25" vType="DEFAULT_VEHTYPE" speedFactor="0.89" vaporized=""/>
    <tripinfo id="39" depart="78.00" departLane="-4611708#3_0" departPos="5.10" departSpeed="0.00" departDelay="0.00" arrival="123.00" arrivalLane="-35557161#2_0" arrivalPos="84.50" arrivalSpeed="7.16" duration="45.00" routeLength="307.76" waitingTime="0.00" waitingCount="0" stopTime="0.00" timeLoss="6.18" rerouteNo="1" devices="tripinfo_39 routing_39" vType="DEFAULT_VEHTYPE" speedFactor="0.97" vaporized=""/>
    <tripinfo id="12" depart="24.00" departLane="66071366#2_0" departPos="5.10" departSpeed="0.00" departDelay="0.00" arrival="128.00" arrivalLane="-47755711#0_0" arrivalPos="5.09" arrivalSpeed="7.58" duration="104.00" routeLength="935.69" waitingTime="0.00" waitingCount="0" stopTime="0.00" timeLoss="17.48" rerouteNo="1" devices="tripinfo_12 routing_12" vType="DEFAULT_VEHTYPE" speedFactor="1.05" vaporized=""/>
    <tripinfo id="40" depart="80.00" departLane="1426079060#0_0" departPos="0.20" departSpeed="0.00" departDelay="0.00" arrival="131.00" arrivalLane="-375459783#0_0" arrivalPos="65.61" arrivalSpeed="9.67" duration="51.00" routeLength="404.23" waitingTime="0.00" waitingCount="0" stopTime="0.00" timeLoss="14.54" rerouteNo="1" devices="tripinfo_40 routing_40" vType="DEFAULT_VEHTYPE" speedFactor="1.18" vaporized=""/>
    <tripinfo id="6" depart="12.00" departLane="-1132164893#0_0" departPos="2.41" departSpeed="0.00" departDelay="0.00" arrival="132.00" arrivalLane="-23017852#1_0" arrivalPos="0.20" arrivalSpeed="7.82" duration="120.00" routeLength="925.60" waitingTime="2.00" waitingCount="1" stopTime="0.00" timeLoss="22.34" rerouteNo="1" devices="tripinfo_6 routing_6" vType="DEFAULT_VEHTYPE" speedFactor="1.05" vaporized=""/>
    <tripinfo id="46" depart="92.00" departLane="375311155#0_0" departPos="5.10" departSpeed="0.00" departDelay="0.00" arrival="140.00" arrivalLane="110786129#1_2" arrivalPos="47.51" arrivalSpeed="7.96" duration="48.00" routeLength="230.30" waitingTime="12.00" waitingCount="1" stopTime="0.00" timeLoss="20.51" rerouteNo="1" devices="tripinfo_46 routing_46" vType="DEFAULT_VEHTYPE" speedFactor="1.04" vaporized=""/>
    <tripinfo id="62" depart="124.00" departLane="-1009114665#0_0" departPos="0.20" departSpeed="0.00" departDelay="0.00" arrival="142.00" arrivalLane="-4611714#4_0" arrivalPos="49.49" arrivalSpeed="7.80" duration="18.00" routeLength="124.84" waitingTime="0.00" waitingCount="0" stopTime="0.00" timeLoss="2.92" rerouteNo="1" devices="tripinfo_62 routing_62" vType="DEFAULT_VEHTYPE" speedFactor="1.02" vaporized=""/>
    <tripinfo id="65" depart="130.00" departLane="-4773029#1_0" departPos="5.10" departSpeed="0.00" departDelay="0.00" arrival="144.00" arrivalLane="-1159149106#0_0" arrivalPos="1.92" arrivalSpeed="8.90" duration="14.00" routeLength="117.41" waitingTime="0.00" waitingCount="0" stopTime="0.00" timeLoss="3.45" rerouteNo="1" devices="tripinfo_65 routing_65" vType="DEFAULT_VEHTYPE" speedFactor="1.08" vaporized=""/>
    <tripinfo id="33" depart="66.00" departLane="-375311153#0_0" departPos="5.10" departSpeed="0.00" departDelay="0.00" arrival="146.00" arrivalLane="-1132167289#1_0" arrivalPos="6.38" arrivalSpeed="9.43" duration="80.00" routeLength="463.51" waitingTime="14.00" waitingCount="2" stopTime="0.00" timeLoss="31.74" rerouteNo="1" devices="tripinfo_33 routing_33" vType="DEFAULT_VEHTYPE" speedFactor="1.15" vaporized=""/>
    <tripinfo id="26" depart="52.00" departLane="-4611708#3_0" departPos="5.10" departSpeed="0.00" departDelay="0.00" arrival="150.00" arrivalLane="47707170#3_0" arrivalPos="7.62" arrivalSpeed="5.99" duration="98.00" routeLength="601.13" waitingTime="0.00" waitingCount="0" stopTime="0.00" timeLoss="9.75" rerouteNo="1" devices="tripinfo_26 routing_26" vType="DEFAULT_VEHTYPE" speedFactor="0.83" vaporized=""/>
    <tripinfo id="50" depart="100.00" departLane="-1105574289#1_0" departPos="4.06" departSpeed="0.00" departDelay="0.00" arrival="151.00" arrivalLane="23017853#0_0" arrivalPos="10.41" arrivalSpeed="6.88" duration="51.00" routeLength="318.79" waitingTime="0.00" waitingCount="0" stopTime="0.00" timeLoss="7.97" rerouteNo="1" devices="tripinfo_50 routing_50" vType="DEFAULT_VEHTYPE" speedFactor="0.90" vaporized=""/>
    <tripinfo id="8" depart="16.00" departLane="-35557161#1_0" departPos="5.10" departSpeed="0.00" departDelay="0.00" arrival="152.00" arrivalLane="1426079060#1_0" arrivalPos="2.48" arrivalSpeed="4.84" duration="136.00" routeLength="1028.26" waitingTime="4.00" waitingCount="2" stopTime="0.00" timeLoss="30.10" rerouteNo="1" devices="tripinfo_8 routing_8" vType="DEFAULT_VEHTYPE" speedFactor="0.94" vaporized=""/>
    <tripinfo id="44" depart="88.00" departLane="-1423958087_0" departPos="0.11" departSpeed="0.00" departDelay="0.00" arrival="155.00" arrivalLane="-1151333056_0" arrivalPos="40.54" arrivalSpeed="7.88" duration="67.00" routeLength="416.20" waitingTime="9.00" waitingCount="1" stopTime="0.00" timeLoss="17.75" rerouteNo="1" devices="tripinfo_44 routing_44" vType="DEFAULT_VEHTYPE" speedFactor="0.96" vaporized=""/>
    <tripinfo id="73" depart="146.00" departLane="1421427239#0_0" departPos="5.10" departSpeed="0.00" departDelay="0.00" arrival="155.00" arrivalLane="233833576#0_0" arrivalPos="42.69" arrivalSpeed="12.62" duration="9.00" routeLength="73.18" waitingTime="0.00" waitingCount="0" stopTime="0.00" timeLoss="2.64" rerouteNo="1" devices="tripinfo_73 routing_73" vType="DEFAULT_VEHTYPE" speedFactor="0.91" vaporized=""/>
    <tripinfo id="22" depart="44.00" departLane="-1423958086#0_0" departPos="5.10" departSpeed="0.00" departDelay="0.00" arrival="163.00" arrivalLane="-327462543#1_0" arrivalPos="35.93" arrivalSpeed="8.33" duration="119.00" routeLength="1112.37" waitingTime="4.00" waitingCount="2" stopTime="0.00" timeLoss="25.00" rerouteNo="1" devices="tripinfo_22 routing_22" vType="DEFAULT_VEHTYPE" speedFactor="1.01" vaporized=""/>
    <tripinfo id="57" depart="114.00" departLane="4611713#2_0" departPos="2.68" departSpeed="0.00" departDelay="0.00" arrival="163.00" arrivalLane="43376693#5_0" arrivalPos="36.19" arrivalSpeed="8.53" duration="49.00" routeLength="390.59" waitingTime="0.00" waitingCount="0" stopTime="0.00" timeLoss="5.75" rerouteNo="1" devices="tripinfo_57 routing_57" vType="DEFAULT_VEHTYPE" speedFactor="1.10" vaporized=""/>
    <tripinfo id="41" depart="82.00" departLane="1426897598#3_0" departPos="5.10" departSpeed="0.00" departDelay="0.00" arrival="164.00" arrivalLane="4611711#1_0" arrivalPos="55.25" arrivalSpeed="8.38" duration="82.00" routeLength="738.04" waitingTime="0.00" waitingCount="0" stopTime="0.00" timeLoss="10.65" rerouteNo="1" devices="tripinfo_41 routing_41" vType="DEFAULT_VEHTYPE" speedFactor="1.10" vaporized=""/>
    <tripinfo id="31" depart="62.00" departLane="1426079060#0_0" departPos="0.20" departSpeed="0.00" departDelay="0.00" arrival="170.00" arrivalLane="196850609#2_0" arrivalPos="0.20" arrivalSpeed="12.28" duration="108.00" routeLength="761.04" waitingTime="19.00" waitingCount="3" stopTime="0.00" timeLoss="40.21" rerouteNo="1" devices="tripinfo_31 routing_31" vType="DEFAULT_VEHTYPE" speedFactor="0.93" vaporized=""/>
    <tripinfo id="34" depart="68.00" departLane="-47755711#1_0" departPos="5.10" departSpeed="0.00" departDelay="0.00" arrival="171.00" arrivalLane="-43376693#1_0" arrivalPos="33.61" arrivalSpeed="7.93" duration="103.00" routeLength="632.30" waitingTime="14.00" waitingCount="2" stopTime="0.00" timeLoss="31.03" rerouteNo="1" devices="tripinfo_34 routing_34" vType="DEFAULT_VEHTYPE" speedFactor="1.01" vaporized=""/>
    <tripinfo id="81" depart="162.00" departLane="-375311153#0_0" departPos="5.10" departSpeed="0.00" departDelay="0.00" arrival="187.00" arrivalLane="4611712#2_0" arrivalPos="3.24" arrivalSpeed="8.24" duration="25.00" routeLength="160.96" waitingTime="0.00" waitingCount="0" stopTime="0.00" timeLoss="5.12" rerouteNo="1" devices="tripinfo_81 routing_81" vType="DEFAULT_VEHTYPE" speedFactor="1.06" vaporized=""/>
    <tripinfo id="29" depart="58.00" departLane="-23017852#1_0" departPos="0.20" departSpeed="0.00" departDelay="0.00" arrival="188.00" arrivalLane="-840229277#0_0" arrivalPos="108.34" arrivalSpeed="7.88" duration="130.00" routeLength="861.00" waitingTime="7.00" waitingCount="1" stopTime="0.00" timeLoss="23.42" rerouteNo="1" devices="tripinfo_29 routing_29" vType="DEFAULT_VEHTYPE" speedFactor="0.95" vaporized=""/>
    <tripinfo id="49" depart="98.00" departLane="81113584#0_0" departPos="5.10" departSpeed="0.00" departDelay="0.00" arrival="197.00" arrivalLane="43376693#1_0" arrivalPos="33.61" arrivalSpeed="7.54" duration="99.00" routeLength="610.39" waitingTime="17.00" waitingCount="1" stopTime="0.00" timeLoss="29.56" rerouteNo="1" devices="tripinfo_49 routing_49" vType="DEFAULT_VEHTYPE" speedFactor="1.00" vaporized=""/>
    <tripinfo id="1" depart="2.00" departLane="-4611711#1_0" departPos="5.10" departSpeed="0.00" departDelay="0.00" arrival="198.00" arrivalLane="-24509318#1_0" arrivalPos="61.13" arrivalSpeed="6.60" duration="196.00" routeLength="1355.34" waitingTime="0.00" waitingCount="0" stopTime="0.00" timeLoss="20.99" rerouteNo="1" devices="tripinfo_1 routing_1" vType="DEFAULT_VEHTYPE" speedFactor="0.94" vaporized=""/>
    <tripinfo id="54" depart="108.00" departLane="1151333058#0_0" departPos="0.20" departSpeed="0.00" departDelay="0.00" arrival="198.00" arrivalLane="4773029#1_0" arrivalPos="12.90" arrivalSpeed="8.79" duration="90.00" routeLength="830.28" waitingTime="0.00" waitingCount="0" stopTime="0.00" timeLoss="10.95" rerouteNo="1" devices="tripinfo_54 routing_54" vType="DEFAULT_VEHTYPE" speedFactor="1.17" vaporized=""/>
    <tripinfo id="53" depart="106.00" departLane="-1426120125#0_0" departPos="5.10" departSpeed="0.00" departDelay="0.00" arrival="202.00" arrivalLane="1127602092#1_0" arrivalPos="22.04" arrivalSpeed="7.03" duration="96.00" routeLength="614.49" waitingTime="0.00" waitingCount="0" stopTime="0.00" timeLoss="9.39" rerouteNo="1" devices="tripinfo_53 routing_53" vType="DEFAULT_VEHTYPE" speedFactor="0.85" vaporized=""/>
    <tripinfo id="18" depart="36.00" departLane="389101374#2_0" departPos="5.10" departSpeed="0.00" departDelay="0.00" arrival="204.00" arrivalLane="147066248#4_0" arrivalPos="19.76" arrivalSpeed="2.27" duration="168.00" routeLength="963.90" waitingTime="0.00" waitingCount="0" stopTime="0.00" timeLoss="21.83" rerouteNo="1" devices="tripinfo_18 routing_18" vType="DEFAULT_VEHTYPE" speedFactor="0.94" vaporized=""/>
    <tripinfo id="69" depart="138.00" departLane="35557143#3_0" departPos="5.10" departSpeed="0.00" departDelay="0.00" arrival="204.00" arrivalLane="-1426216315#0_0" arrivalPos="26.88" arrivalSpeed="7.02" duration="66.00" routeLength="477.32" waitingTime="0.00" waitingCount="0" stopTime="0.00" timeLoss="7.55" rerouteNo="1" devices="tripinfo_69 routing_69" vType="DEFAULT_VEHTYPE" speedFactor="0.99" vaporized=""/>
    <tripinfo id="27" depart="54.00" departLane="171423001#0_0" departPos="0.20" departSpeed="0.00" departDelay="0.00" arrival="207.00" arrivalLane="147066248#1_0" arrivalPos="29.71" arrivalSpeed="1.46" duration="153.00" routeLength="983.55" waitingTime="8.00" waitingCount="1" stopTime="0.00" timeLoss="29.88" rerouteNo="1" devices="tripinfo_27 routing_27" vType="DEFAULT_VEHTYPE" speedFactor="0.87" vaporized=""/>
    <tripinfo id="35" depart="70.00" departLane="-327462543#1_0" departPos="5.10" departSpeed="0.00" departDelay="0.00" arrival="212.00" arrivalLane="4773029#1_0" arrivalPos="12.90" arrivalSpeed="9.46" duration="142.00" routeLength="1308.63" waitingTime="3.00" waitingCount="1" stopTime="0.00" timeLoss="36.64" rerouteNo="1" devices="tripinfo_35 routing_35" vType="DEFAULT_VEHTYPE" speedFactor="1.17" vaporized=""/>
    <tripinfo id="88" depart="177.00" departLane="-1423958088#0_0" departPos="5.10" departSpeed="0.00" departDelay="1.00" arrival="214.00" arrivalLane="1126241276#1_0" arrivalPos="76.02" arrivalSpeed="8.22" duration="37.00" routeLength="280.42" waitingTime="0.00" waitingCount="0" stopTime="0.00" timeLoss="6.73" rerouteNo="1" devices="tripinfo_88 routing_88" vType="DEFAULT_VEHTYPE" speedFactor="1.03" vaporized=""/>
    <tripinfo id="59" depart="118.00" departLane="147066248#3_0" departPos="5.10" departSpeed="0.00" departDelay="0.00" arrival="215.00" arrivalLane="-1426897603#0_0" arrivalPos="0.20" arrivalSpeed="7.54" duration="97.00" routeLength="527.21" waitingTime="0.00" waitingCount="0" stopTime="0.00" timeLoss="17.84" rerouteNo="1" devices="tripinfo_59 routing_59" vType="DEFAULT_VEHTYPE" speedFactor="1.00" vaporized=""/>
    <tripinfo id="56" depart="112.00" departLane="1238797610#3_0" departPos="5.10" departSpeed="0.00" departDelay="0.00" arrival="217.00" arrivalLane="-147066248#9_0" arrivalPos="17.17" arrivalSpeed="2.42" duration="105.00" routeLength="712.53" waitingTime="0.00" waitingCount="0" stopTime="0.00" timeLoss="14.55" rerouteNo="1" devices="tripinfo_56 routing_56" vType="DEFAULT_VEHTYPE" speedFactor="1.02" vaporized=""/>
    <tripinfo id="7" depart="14.00" departLane="171423001#0_0" departPos="0.20" departSpeed="0.00" departDelay="0.00" arrival="218.00" arrivalLane="1421185260#1_0" arrivalPos="17.40" arrivalSpeed="12.23" duration="204.00" routeLength="1460.13" waitingTime="33.00" waitingCount="3" stopTime="0.00" timeLoss="59.51" rerouteNo="1" devices="tripinfo_7 routing_7" vType="DEFAULT_VEHTYPE" speedFactor="0.89" vaporized=""/>
    <tripinfo id="16" depart="32.00" departLane="1421185267#3_0" departPos="5.10" departSpeed="0.00" departDelay="0.00" arrival="221.00" arrivalLane="66071366#3_0" arrivalPos="66.22" arrivalSpeed="11.31" duration="189.00" routeLength="1293.66" waitingTime="22.00" waitingCount="2" stopTime="0.00" timeLoss="45.95" rerouteNo="1" devices="tripinfo_16 routing_16" vType="DEFAULT_VEHTYPE" speedFactor="0.88" vaporized=""/>
    <tripinfo id="38" depart="76.00" departLane="4611714#1_0" departPos="5.10" departSpeed="0.00" departDelay="0.00" arrival="224.00" arrivalLane="1149365724#2_0" arrivalPos="0.20" arrivalSpeed="7.49" duration="148.00" routeLength="1236.63" waitingTime="0.00" waitingCount="0" stopTime="0.00" timeLoss="18.35" rerouteNo="1" devices="tripinfo_38 routing_38" vType="DEFAULT_VEHTYPE" speedFactor="1.02" vaporized=""/>
    <tripinfo id="94" depart="188.00" departLane="-24997595#0_0" departPos="5.10" departSpeed="0.00" departDelay="0.00" arrival="224.00" arrivalLane="1136657264#3_0" arrivalPos="20.57" arrivalSpeed="8.24" duration="36.00" routeLength="217.58" waitingTime="0.00" waitingCount="0" stopTime="0.00" timeLoss="7.88" rerouteNo="1" devices="tripinfo_94 routing_94" vType="DEFAULT_VEHTYPE" speedFactor="1.00" vaporized=""/>
    <tripinfo id="9" depart="18.00" departLane="375312063#0_0" departPos="5.10" departSpeed="0.00" departDelay="0.00" arrival="227.00" arrivalLane="-1009114665#2_0" arrivalPos="21.02" arrivalSpeed="6.91" duration="209.00" routeLength="1248.89" waitingTime="9.00" waitingCount="1" stopTime="0.00" timeLoss="32.85" rerouteNo="1" devices="tripinfo_9 routing_9" vType="DEFAULT_VEHTYPE" speedFactor="0.86" vaporized=""/>
    <tripinfo id="99" depart="198.00" departLane="884209962#1_0" departPos="5.10" departSpeed="0.00" departDelay="0.00" arrival="229.00" arrivalLane="389101373#3_0" arrivalPos="13.52" arrivalSpeed="8.12" duration="31.00" routeLength="219.81" waitingTime="0.00" waitingCount="0" stopTime="0.00" timeLoss="4.93" rerouteNo="1" devices="tripinfo_99 routing_99" vType="DEFAULT_VEHTYPE" speedFactor="1.02" vaporized=""/>
    <tripinfo id="82" depart="164.00" departLane="4588219#0_0" departPos="5.10" departSpeed="0.00" departDelay="0.00" arrival="230.00" arrivalLane="-1187575246_0" arrivalPos="11.04" arrivalSpeed="7.85" duration="66.00" routeLength="450.72" waitingTime="5.00" waitingCount="1" stopTime="0.00" timeLoss="16.87" rerouteNo="1" devices="tripinfo_82 routing_82" vType="DEFAULT_VEHTYPE" speedFactor="0.96" vaporized=""/>
    <tripinfo id="67" depart="134.00" departLane="-1423958087_0" departPos="0.11" departSpeed="0.00" departDelay="0.00" arrival="231.00" arrivalLane="1195383150#1_0" arrivalPos="19.69" arrivalSpeed="8.93" duration="97.00" routeLength="636.00" waitingTime="14.00" waitingCount="1" stopTime="0.00" timeLoss="28.10" rerouteNo="1" devices="tripinfo_67 routing_67" vType="DEFAULT_VEHTYPE" speedFactor="1.12" vaporized=""/>
    <tripinfo id="77" depart="154.00" departLane="-1426216316#0_0" departPos="5.10" departSpeed="0.00" departDelay="0.00" arrival="231.00" arrivalLane="-24997595#0_0" arrivalPos="64.86" arrivalSpeed="7.37" duration="77.00" routeLength="561.08" waitingTime="0.00" waitingCount="0" stopTime="0.00" timeLoss="10.10" rerouteNo="1" devices="tripinfo_77 routing_77" vType="DEFAULT_VEHTYPE" speedFactor="1.02" vaporized=""/>
    <tripinfo id="32" depart="64.00" departLane="43346200_0" departPos="0.86" departSpeed="0.00" departDelay="0.00" arrival="232.00" arrivalLane="327462543#0_0" arrivalPos="35.92" arrivalSpeed="9.37" duration="168.00" routeLength="1527.83" waitingTime="13.00" waitingCount="3" stopTime="0.00" timeLoss="47.10" rerouteNo="1" devices="tripinfo_32 routing_32" vType="DEFAULT_VEHTYPE" speedFactor="1.18" vaporized=""/>
    <tripinfo id="58" depart="116.00" departLane="-4611718#2_0" departPos="5.10" departSpeed="0.00" departDelay="0.00" arrival="232.00" arrivalLane="16374191#1_1" arrivalPos="29.27" arrivalSpeed="8.04" duration="116.00" routeLength="796.62" waitingTime="1.00" waitingCount="1" stopTime="0.00" timeLoss="18.86" rerouteNo="1" devices="tripinfo_58 routing_58" vType="DEFAULT_VEHTYPE" speedFactor="1.00" vaporized=""/>
    <tripinfo id="30" depart="60.00" departLane="831860726_0" departPos="0.20" departSpeed="0.00" departDelay="0.00" arrival="234.00" arrivalLane="168514765#1_1" arrivalPos="15.53" arrivalSpeed="14.15" duration="174.00" routeLength="1285.92" waitingTime="25.00" waitingCount="3" stopTime="0.00" timeLoss="52.92" rerouteNo="1" devices="tripinfo_30 routing_30" vType="DEFAULT_VEHTYPE" speedFactor="1.13" vaporized=""/>
    <tripinfo id="72" depart="144.00" departLane="1149365724#1_0" departPos="5.10" departSpeed="0.00" departDelay="0.00" arrival="234.00" arrivalLane="-23017853#1_0" arrivalPos="14.48" arrivalSpeed="6.72" duration="90.00" routeLength="545.30" waitingTime="6.00" waitingCount="1" stopTime="0.00" timeLoss="17.11" rerouteNo="1" devices="tripinfo_72 routing_72" vType="DEFAULT_VEHTYPE" speedFactor="0.91" vaporized=""/>
    <tripinfo id="89" depart="178.00" departLane="1149365724#2_0" departPos="0.20" departSpeed="0.00" departDelay="0.00" arrival="235.00" arrivalLane="1151333056_0" arrivalPos="40.57" arrivalSpeed="7.94" duration="57.00" routeLength="423.61" waitingTime="0.00" waitingCount="0" stopTime="0.00" timeLoss="5.93" rerouteNo="1" devices="tripinfo_89 routing_89" vType="DEFAULT_VEHTYPE" speedFactor="1.00" vaporized=""/>
    <tripinfo id="95" depart="190.00" departLane="1149365724#1_0" departPos="5.10" departSpeed="0.00" departDelay="0.00" arrival="238.00" arrivalLane="-43376693#5_0" arrivalPos="35.34" arrivalSpeed="8.60" duration="48.00" routeLength="346.25" waitingTime="0.00" waitingCount="0" stopTime="0.00" timeLoss="7.86" rerouteNo="1" devices="tripinfo_95 routing_95" vType="DEFAULT_VEHTYPE" speedFactor="1.04" vaporized=""/>
    <tripinfo id="48" depart="96.00" departLane="840229277#1_0" departPos="0.60" departSpeed="0.00" departDelay="0.00" arrival="239.00" arrivalLane="1418921820#3_0" arrivalPos="3.55" arrivalSpeed="8.29" duration="143.00" routeLength="984.54" waitingTime="26.00" waitingCount="3" stopTime="0.00" timeLoss="49.98" rerouteNo="1" devices="tripinfo_48 routing_48" vType="DEFAULT_VEHTYPE" speedFactor="1.09" vaporized=""/>
    <tripinfo id="64" depart="128.00" departLane="4611708#1_0" departPos="5.10" departSpeed="0.00" departDelay="0.00" arrival="239.00" arrivalLane="389101373#1_0" arrivalPos="7.66" arrivalSpeed="7.39" duration="111.00" routeLength="792.16" waitingTime="0.00" waitingCount="0" stopTime="0.00" timeLoss="11.07" rerouteNo="1" devices="tripinfo_64 routing_64" vType="DEFAULT_VEHTYPE" speedFactor="0.97" vaporized=""/>
    <tripinfo id="74" depart="148.00" departLane="-25945760#1_0" departPos="2.79" departSpeed="0.00" departDelay="0.00" arrival="240.00" arrivalLane="-4611711#2_0" arrivalPos="0.45" arrivalSpeed="3.67" duration="92.00" routeLength="781.74" waitingTime="3.00" waitingCount="1" stopTime="0.00" timeLoss="21.43" rerouteNo="1" devices="tripinfo_74 routing_74" vType="DEFAULT_VEHTYPE" speedFactor="1.04" vaporized=""/>
    <tripinfo id="61" depart="122.00" departLane="375311153#0_0" departPos="5.10" departSpeed="0.00" departDelay="0.00" arrival="242.00" arrivalLane="1418921820#3_0" arrivalPos="3.55" arrivalSpeed="9.41" duration="120.00" routeLength="831.04" waitingTime="26.00" waitingCount="2" stopTime="0.00" timeLoss="46.46" rerouteNo="1" devices="tripinfo_61 routing_61" vType="DEFAULT_VEHTYPE" speedFactor="1.14" vaporized=""/>
    <tripinfo id="37" depart="74.00" departLane="171423001#0_0" departPos="0.20" departSpeed="0.00" departDelay="0.00" arrival="243.00" arrivalLane="1040940511_1" arrivalPos="6.47" arrivalSpeed="13.14" duration="169.00" routeLength="1395.54" waitingTime="20.00" waitingCount="2" stopTime="0.00" timeLoss="46.55" rerouteNo="1" devices="tripinfo_37 routing_37" vType="DEFAULT_VEHTYPE" speedFactor="0.99" vaporized=""/>
    <tripinfo id="98" depart="196.00" departLane="1424675345#0_0" departPos="0.56" departSpeed="0.00" departDelay="0.00" arrival="248.00" arrivalLane="-1151333057#1_0" arrivalPos="8.56" arrivalSpeed="8.29" duration="52.00" routeLength="428.39" waitingTime="0.00" waitingCount="0" stopTime="0.00" timeLoss="5.79" rerouteNo="1" devices="tripinfo_98 routing_98" vType="DEFAULT_VEHTYPE" speedFactor="1.02" vaporized=""/>