<?xml version="1.0" encoding="UTF-8"?>

<!-- generated on 2025-11-12 09:42:25 by Eclipse SUMO GUI Version 1.20.0
<configuration xmlns:xsi="http://www.w3.org/2001/XMLSchema-instance" xsi:noNamespaceSchemaLocation="http://sumo.dlr.de/xsd/sumoConfiguration.xsd">

    <input>
        <net-file value="/Users/sohamghadge/Documents/Final_Project/TrafficLearningproject/src/scenarios/4x4_grid/osm.net.xml.gz"/>
        <route-files value="/Users/sohamghadge/Documents/Final_Project/TrafficLearningproject/src/scenarios/4x4_grid/low_traffic.rou.xml"/>
        <additional-files value="/Users/sohamghadge/Documents/Final_Project/TrafficLearningproject/src/scenarios/4x4_grid/osm.poly.xml.gz,/Users/sohamghadge/Documents/Final_Project/TrafficLearningproject/src/scenarios/4x4_grid/output.add.xml"/>
    </input>

    <output>
        <tripinfo-output value="/Users/sohamghadge/Documents/Final_Project/TrafficLearningproject/src/scenarios/city4x4/low/tripinfos.xml"/>
        <statistic-output value="/Users/sohamghadge/Documents/Final_Project/TrafficLearningproject/src/scenarios/city4x4/low/stats.xml"/>
    </output>

    <time>
        <begin value="0"/>
        <end value="3600"/>
    </time>

    <processing>
        <ignore-route-errors value="true"/>
        <tls.actuated.jam-threshold value="30"/>
    </processing>

    <routing>
        <device.rerouting.adaptation-steps value="18"/>
        <device.rerouting.adaptation-interval value="10"/>
    </routing>

    <report>
        <verbose value="false"/>
        <duration-log.statistics value="true"/>
        <no-step-log value="true"/>
    </report>

</configuration>
-->

<tripinfos xmlns:xsi="http://www.w3.org/2001/XMLSchema-instance" xsi:noNamespaceSchemaLocation="http://sumo.dlr.de/xsd/tripinfo_file.xsd">
    <tripinfo id="3" depart="30.00" departLane="4611711#0_0" departPos="5.10" departSpeed="0.00" departDelay="0.00" arrival="86.00" arrivalLane="-1249342904#1_0" arrivalPos="14.12" arrivalSpeed="8.58" duration="56.00" routeLength="426.72" waitingTime="0.00" waitingCount="0" stopTime="0.00" timeLoss="7.57" rerouteNo="1" devices="tripinfo_3 routing_3" vType="DEFAULT_VEHTYPE" speedFactor="1.08" vaporized=""/>
    <tripinfo id="4" depart="40.00" departLane="1149365724#1_0" departPos="5.10" departSpeed="0.00" departDelay="0.00" arrival="112.00" arrivalLane="-1132167289#1_0" arrivalPos="6.38" arrivalSpeed="7.94" duration="72.00" routeLength="545.34" waitingTime="2.00" waitingCount="1" stopTime="0.00" timeLoss="16.78" rerouteNo="1" devices="tripinfo_4 routing_4" vType="DEFAULT_VEHTYPE" speedFactor="1.03" vaporized=""/>
    <tripinfo id="2" depart="20.00" departLane="23017853#2_0" departPos="5.10" departSpeed="0.00" departDelay="0.00" arrival="119.00" arrivalLane="196850609#2_0" arrivalPos="0.20" arrivalSpeed="13.32" duration="99.00" routeLength="737.14" waitingTime="0.00" waitingCount="0" stopTime="0.00" timeLoss="14.06" rerouteNo="1" devices="tripinfo_2 routing_2" vType="DEFAULT_VEHTYPE" speedFactor="1.01" vaporized=""/>
    <tripinfo id="0" depart="0.00" departLane="168515533#2_0" departPos="5.10" departSpeed="0.00" departDelay="0.00" arrival="120.00" arrivalLane="-1132164863_0" arrivalPos="88.58" arrivalSpeed="7.83" duration="120.00" routeLength="906.22" waitingTime="12.00" waitingCount="1" stopTime="0.00" timeLoss="29.35" rerouteNo="1" devices="tripinfo_0 routing_0" vType="DEFAULT_VEHTYPE" speedFactor="1.06" vaporized=""/>
    <tripinfo id="5" depart="50.00" departLane="-35557161#0_0" departPos="5.10" departSpeed="0.00" departDelay="0.00" arrival="155.00" arrivalLane="1238797610#2_0" arrivalPos="29.31" arrivalSpeed="5.93" duration="105.00" routeLength="773.18" waitingTime="0.00" waitingCount="0" stopTime="0.00" timeLoss="11.43" rerouteNo="1" devices="tripinfo_5 routing_5" vType="DEFAULT_VEHTYPE" speedFactor="0.83" vaporized=""/>
    <tripinfo id="11" depart="110.00" departLane="-831860726_0" departPos="0.20" departSpeed="0.00" departDelay="0.00" arrival="173.00" arrivalLane="-1426897603#3_0" arrivalPos="0.20" arrivalSpeed="8.30" duration="63.00" routeLength="468.29" waitingTime="0.00" waitingCount="0" stopTime="0.00" timeLoss="7.16" rerouteNo="1" devices="tripinfo_11 routing_11" vType="DEFAULT_VEHTYPE" speedFactor="1.03" vaporized=""/>
    <tripinfo id="10" depart="100.00" departLane="375311158#1_0" departPos="5.10" departSpeed="0.00" departDelay="0.00" arrival="178.00" arrivalLane="199847252#2_0" arrivalPos="20.27" arrivalSpeed="14.88" duration="78.00" routeLength="368.64" waitingTime="24.00" waitingCount="3" stopTime="0.00" timeLoss="39.92" rerouteNo="1" devices="tripinfo_10 routing_10" vType="DEFAULT_VEHTYPE" speedFactor="1.09" vaporized=""/>
    <tripinfo id="6" depart="60.00" departLane="-1132164893#0_0" departPos="2.41" departSpeed="0.00" departDelay="0.00" arrival="197.00" arrivalLane="-23017852#1_0" arrivalPos="0.20" arrivalSpeed="7.47" duration="137.00" routeLength="925.60" waitingTime="17.00" waitingCount="2" stopTime="0.00" timeLoss="40.10" rerouteNo="1" devices="tripinfo_6 routing_6" vType="DEFAULT_VEHTYPE" speedFactor="1.05" vaporized=""/>
    <tripinfo id="1" depart="10.00" departLane="-4611711#1_0" departPos="5.10" departSpeed="0.00" departDelay="0.00" arrival="206.00" arrivalLane="-24509318#1_0" arrivalPos="61.13" arrivalSpeed="7.75" duration="196.00" routeLength="1355.34" waitingTime="0.00" waitingCount="0" stopTime="0.00" timeLoss="20.38" rerouteNo="1" devices="tripinfo_1 routing_1" vType="DEFAULT_VEHTYPE" speedFactor="0.94" vaporized=""/>
    <tripinfo id="14" depart="140.00" departLane="43376693#2_0" departPos="5.10" departSpeed="0.00" departDelay="0.00" arrival="214.00" arrivalLane="1426897601#1_0" arrivalPos="10.69" arrivalSpeed="9.53" duration="74.00" routeLength="548.58" waitingTime="0.00" waitingCount="0" stopTime="0.00" timeLoss="8.06" rerouteNo="1" devices="tripinfo_14 routing_14" vType="DEFAULT_VEHTYPE" speedFactor="0.99" vaporized=""/>
    <tripinfo id="8" depart="80.00" departLane="-35557161#1_0" departPos="5.10" departSpeed="0.00" departDelay="0.00" arrival="217.00" arrivalLane="1426079060#1_0" arrivalPos="2.48" arrivalSpeed="5.80" duration="137.00" routeLength="1028.26" waitingTime="6.00" waitingCount="2" stopTime="0.00" timeLoss="30.76" rerouteNo="1" devices="tripinfo_8 routing_8" vType="DEFAULT_VEHTYPE" speedFactor="0.94" vaporized=""/>
    <tripinfo id="19" depart="190.00" departLane="4588219#1_0" departPos="5.10" departSpeed="0.00" departDelay="0.00" arrival="219.00" arrivalLane="1424634884#4_0" arrivalPos="72.72" arrivalSpeed="15.95" duration="29.00" routeLength="308.49" waitingTime="0.00" waitingCount="0" stopTime="0.00" timeLoss="8.27" rerouteNo="1" devices="tripinfo_19 routing_19" vType="DEFAULT_VEHTYPE" speedFactor="1.16" vaporized=""/>
    <tripinfo id="13" depart="130.00" departLane="-1423958087_0" departPos="0.11" departSpeed="0.00" departDelay="0.00" arrival="220.00" arrivalLane="-1424634880#0_0" arrivalPos="75.78" arrivalSpeed="15.02" duration="90.00" routeLength="869.10" waitingTime="7.00" waitingCount="1" stopTime="0.00" timeLoss="22.09" rerouteNo="1" devices="tripinfo_13 routing_13" vType="DEFAULT_VEHTYPE" speedFactor="1.12" vaporized=""/>
    <tripinfo id="20" depart="200.00" departLane="199847252#1_0" departPos="5.10" departSpeed="0.00" departDelay="0.00" arrival="230.00" arrivalLane="-1136657266_0" arrivalPos="64.21" arrivalSpeed="7.70" duration="30.00" routeLength="219.26" waitingTime="0.00" waitingCount="0" stopTime="0.00" timeLoss="6.69" rerouteNo="1" devices="tripinfo_20 routing_20" vType="DEFAULT_VEHTYPE" speedFactor="1.02" vaporized=""/>
    <tripinfo id="12" depart="120.00" departLane="66071366#2_0" departPos="5.10" departSpeed="0.00" departDelay="0.00" arrival="236.00" arrivalLane="-47755711#0_0" arrivalPos="5.09" arrivalSpeed="8.65" duration="116.00" routeLength="935.69" waitingTime="2.00" waitingCount="2" stopTime="0.00" timeLoss="29.16" rerouteNo="1" devices="tripinfo_12 routing_12" vType="DEFAULT_VEHTYPE" speedFactor="1.05" vaporized=""/>
    <tripinfo id="17" depart="170.00" departLane="1123184404#0_0" departPos="5.10" departSpeed="0.00" departDelay="0.00" arrival="240.00" arrivalLane="1421185260#1_0" arrivalPos="17.40" arrivalSpeed="12.06" duration="70.00" routeLength="614.29" waitingTime="0.00" waitingCount="0" stopTime="0.00" timeLoss="13.51" rerouteNo="1" devices="tripinfo_17 routing_17" vType="DEFAULT_VEHTYPE" speedFactor="0.94" vaporized=""/>
    <tripinfo id="15" depart="150.00" departLane="375312063#0_0" departPos="5.10" departSpeed="0.00" departDelay="0.00" arrival="244.00" arrivalLane="233833576#0_1" arrivalPos="42.69" arrivalSpeed="11.71" duration="94.00" routeLength="674.19" waitingTime="13.00" waitingCount="1" stopTime="0.00" timeLoss="27.51" rerouteNo="1" devices="tripinfo_15 routing_15" vType="DEFAULT_VEHTYPE" speedFactor="0.93" vaporized=""/>
    <tripinfo id="7" depart="70.00" departLane="171423001#0_0" departPos="0.20" departSpeed="0.00" departDelay="0.00" arrival="264.00" arrivalLane="1421185260#1_0" arrivalPos="17.40" arrivalSpeed="12.27" duration="194.00" routeLength="1460.13" waitingTime="20.00" waitingCount="3" stopTime="0.00" timeLoss="50.21" rerouteNo="1" devices="tripinfo_7 routing_7" vType="DEFAULT_VEHTYPE" speedFactor="0.89" vaporized=""/>
    <tripinfo id="9" depart="90.00" departLane="375312063#0_0" departPos="5.10" departSpeed="0.00" departDelay="0.00" arrival="287.00" arrivalLane="-1009114665#2_0" arrivalPos="21.02" arrivalSpeed="6.72" duration="197.00" routeLength="1248.89" waitingTime="0.00" waitingCount="0" stopTime="0.00" timeLoss="20.39" rerouteNo="1" devices="tripinfo_9 routing_9" vType="DEFAULT_VEHTYPE" speedFactor="0.86" vaporized=""/>
    <tripinfo id="23" depart="230.00" departLane="-1424634884#0_0" departPos="5.10" departSpeed="0.00" departDelay="0.00" arrival="310.00" arrivalLane="-43376693#5_0" arrivalPos="35.34" arrivalSpeed="7.77" duration="80.00" routeLength="569.33" waitingTime="3.00" waitingCount="1" stopTime="0.00" timeLoss="21.60" rerouteNo="1" devices="tripinfo_23 routing_23" vType="DEFAULT_VEHTYPE" speedFactor="0.97" vaporized=""/>
    <tripinfo id="16" depart="160.00" departLane="1421185267#3_0" departPos="5.10" departSpeed="0.00" departDelay="0.00" arrival="318.00" arrivalLane="66071366#3_0" arrivalPos="66.22" arrivalSpeed="11.78" duration="158.00" routeLength="1293.66" waitingTime="0.00" waitingCount="0" stopTime="0.00" timeLoss="14.62" rerouteNo="1" devices="tripinfo_16 routing_16" vType="DEFAULT_VEHTYPE" speedFactor="0.88" vaporized=""/>
    <tripinfo id="25" depart="250.00" departLane="1105574289#2_0" departPos="5.10" departSpeed="0.00" departDelay="0.00" arrival="323.00" arrivalLane="-23017853#0_0" arrivalPos="6.86" arrivalSpeed="6.83" duration="73.00" routeLength="466.68" waitingTime="0.00" waitingCount="0" stopTime="0.00" timeLoss="8.64" rerouteNo="1" devices="tripinfo_25 routing_25" vType="DEFAULT_VEHTYPE" speedFactor="0.89" vaporized=""/>
    <tripinfo id="22" depart="220.00" departLane="-1423958086#0_0" departPos="5.10" departSpeed="0.00" departDelay="0.00" arrival="330.00" arrivalLane="-327462543#1_0" arrivalPos="35.93" arrivalSpeed="8.05" duration="110.00" routeLength="1112.37" waitingTime="2.00" waitingCount="1" stopTime="0.00" timeLoss="15.14" rerouteNo="1" devices="tripinfo_22 routing_22" vType="DEFAULT_VEHTYPE" speedFactor="1.01" vaporized=""/>
    <tripinfo id="18" depart="180.00" departLane="389101374#2_0" departPos="5.10" departSpeed="0.00" departDelay="0.00" arrival="350.00" arrivalLane="147066248#4_0" arrivalPos="19.76" arrivalSpeed="2.32" duration="170.00" routeLength="963.90" waitingTime="0.00" waitingCount="0" stopTime="0.00" timeLoss="23.46" rerouteNo="1" devices="tripinfo_18 routing_18" vType="DEFAULT_VEHTYPE" speedFactor="0.94" vaporized=""/>
    <tripinfo id="26" depart="260.00" departLane="-4611708#3_0" departPos="5.10" departSpeed="0.00" departDelay="0.00" arrival="368.00" arrivalLane="47707170#3_0" arrivalPos="7.62" arrivalSpeed="6.26" duration="108.00" routeLength="601.13" waitingTime="4.00" waitingCount="1" stopTime="0.00" timeLoss="20.31" rerouteNo="1" devices="tripinfo_26 routing_26" vType="DEFAULT_VEHTYPE" speedFactor="0.83" vaporized=""/>
    <tripinfo id="33" depart="330.00" departLane="-375311153#0_0" departPos="5.10" departSpeed="0.00" departDelay="0.00" arrival="384.00" arrivalLane="-1132167289#1_0" arrivalPos="6.38" arrivalSpeed="8.71" duration="54.00" routeLength="463.51" waitingTime="0.00" waitingCount="0" stopTime="0.00" timeLoss="5.72" rerouteNo="1" devices="tripinfo_33 routing_33" vType="DEFAULT_VEHTYPE" speedFactor="1.15" vaporized=""/>
    <tripinfo id="31" depart="310.00" departLane="1426079060#0_0" departPos="0.20" departSpeed="0.00" departDelay="0.00" arrival="389.00" arrivalLane="196850609#2_0" arrivalPos="0.20" arrivalSpeed="11.79" duration="79.00" routeLength="761.04" waitingTime="1.00" waitingCount="1" stopTime="0.00" timeLoss="11.64" rerouteNo="1" devices="tripinfo_31 routing_31" vType="DEFAULT_VEHTYPE" speedFactor="0.93" vaporized=""/>
    <tripinfo id="27" depart="270.00" departLane="171423001#0_0" departPos="0.20" departSpeed="0.00" departDelay="0.00" arrival="411.00" arrivalLane="147066248#1_0" arrivalPos="29.71" arrivalSpeed="2.12" duration="141.00" routeLength="983.55" waitingTime="0.00" waitingCount="0" stopTime="0.00" timeLoss="17.90" rerouteNo="1" devices="tripinfo_27 routing_27" vType="DEFAULT_VEHTYPE" speedFactor="0.87" vaporized=""/>
    <tripinfo id="29" depart="291.00" departLane="-23017852#1_0" departPos="0.20" departSpeed="0.00" departDelay="1.00" arrival="412.00" arrivalLane="-840229277#0_0" arrivalPos="108.34" arrivalSpeed="7.69" duration="121.00" routeLength="861.00" waitingTime="1.00" waitingCount="1" stopTime="0.00" timeLoss="14.08" rerouteNo="1" devices="tripinfo_29 routing_29" vType="DEFAULT_VEHTYPE" speedFactor="0.95" vaporized=""/>
    <tripinfo id="34" depart="340.00" departLane="-47755711#1_0" departPos="5.10" departSpeed="0.00" departDelay="0.00" arrival="434.00" arrivalLane="-43376693#1_0" arrivalPos="33.61" arrivalSpeed="7.88" duration="94.00" routeLength="632.30" waitingTime="8.00" waitingCount="1" stopTime="0.00" timeLoss="21.38" rerouteNo="1" devices="tripinfo_34 routing_34" vType="DEFAULT_VEHTYPE" speedFactor="1.01" vaporized=""/>
    <tripinfo id="39" depart="390.00" departLane="-4611708#3_0" departPos="5.10" departSpeed="0.00" departDelay="0.00" arrival="436.00" arrivalLane="-35557161#2_0" arrivalPos="84.50" arrivalSpeed="6.83" duration="46.00" routeLength="307.76" waitingTime="0.00" waitingCount="0" stopTime="0.00" timeLoss="6.66" rerouteNo="1" devices="tripinfo_39 routing_39" vType="DEFAULT_VEHTYPE" speedFactor="0.97" vaporized=""/>
    <tripinfo id="28" depart="280.00" departLane="-23017852#4_0" departPos="5.10" departSpeed="0.00" departDelay="0.00" arrival="444.00" arrivalLane="233833576#0_1" arrivalPos="42.69" arrivalSpeed="12.58" duration="164.00" routeLength="1143.04" waitingTime="9.00" waitingCount="1" stopTime="0.00" timeLoss="34.71" rerouteNo="1" devices="tripinfo_28 routing_28" vType="DEFAULT_VEHTYPE" speedFactor="0.92" vaporized=""/>
    <tripinfo id="30" depart="300.00" departLane="831860726_0" departPos="0.20" departSpeed="0.00" departDelay="0.00" arrival="456.00" arrivalLane="168514765#1_0" arrivalPos="15.53" arrivalSpeed="14.26" duration="156.00" routeLength="1431.10" waitingTime="3.00" waitingCount="2" stopTime="0.00" timeLoss="33.29" rerouteNo="1" devices="tripinfo_30 routing_30" vType="DEFAULT_VEHTYPE" speedFactor="1.13" vaporized=""/>
    <tripinfo id="40" depart="400.00" departLane="1426079060#0_0" departPos="0.20" departSpeed="0.00" departDelay="0.00" arrival="462.00" arrivalLane="-375459783#0_0" arrivalPos="65.61" arrivalSpeed="8.89" duration="62.00" routeLength="404.23" waitingTime="12.00" waitingCount="1" stopTime="0.00" timeLoss="25.61" rerouteNo="1" devices="tripinfo_40 routing_40" vType="DEFAULT_VEHTYPE" speedFactor="1.18" vaporized=""/>
    <tripinfo id="32" depart="320.00" departLane="43346200_0" departPos="0.86" departSpeed="0.00" departDelay="0.00" arrival="472.00" arrivalLane="327462543#0_0" arrivalPos="35.92" arrivalSpeed="9.79" duration="152.00" routeLength="1527.83" waitingTime="2.00" waitingCount="1" stopTime="0.00" timeLoss="31.67" rerouteNo="1" devices="tripinfo_32 routing_32" vType="DEFAULT_VEHTYPE" speedFactor="1.18" vaporized=""/>
    <tripinfo id="35" depart="350.00" departLane="-327462543#1_0" departPos="5.10" departSpeed="0.00" departDelay="0.00" arrival="492.00" arrivalLane="4773029#1_0" arrivalPos="12.90" arrivalSpeed="8.59" duration="142.00" routeLength="1308.63" waitingTime="5.00" waitingCount="2" stopTime="0.00" timeLoss="36.89" rerouteNo="1" devices="tripinfo_35 routing_35" vType="DEFAULT_VEHTYPE" speedFactor="1.17" vaporized=""/>
    <tripinfo id="41" depart="410.00" departLane="1426897598#3_0" departPos="5.10" departSpeed="0.00" departDelay="0.00" arrival="492.00" arrivalLane="4611711#1_0" arrivalPos="55.25" arrivalSpeed="8.88" duration="82.00" routeLength="738.04" waitingTime="0.00" waitingCount="0" stopTime="0.00" timeLoss="11.01" rerouteNo="1" devices="tripinfo_41 routing_41" vType="DEFAULT_VEHTYPE" speedFactor="1.10" vaporized=""/>
    <tripinfo id="44" depart="440.00" departLane="-1423958087_0" departPos="0.11" departSpeed="0.00" departDelay="0.00" arrival="506.00" arrivalLane="-1151333056_0" arrivalPos="40.54" arrivalSpeed="7.09" duration="66.00" routeLength="416.20" waitingTime="8.00" waitingCount="1" stopTime="0.00" timeLoss="16.59" rerouteNo="1" devices="tripinfo_44 routing_44" vType="DEFAULT_VEHTYPE" speedFactor="0.96" vaporized=""/>
    <tripinfo id="46" depart="460.00" departLane="375311155#0_0" departPos="5.10" departSpeed="0.00" departDelay="0.00" arrival="520.00" arrivalLane="110786129#1_2" arrivalPos="47.51" arrivalSpeed="8.26" duration="60.00" routeLength="230.30" waitingTime="19.00" waitingCount="2" stopTime="0.00" timeLoss="31.84" rerouteNo="1" devices="tripinfo_46 routing_46" vType="DEFAULT_VEHTYPE" speedFactor="1.04" vaporized=""/>
    <tripinfo id="38" depart="380.00" departLane="4611714#1_0" departPos="5.10" departSpeed="0.00" departDelay="0.00" arrival="526.00" arrivalLane="1149365724#2_0" arrivalPos="0.20" arrivalSpeed="8.10" duration="146.00" routeLength="1236.63" waitingTime="0.00" waitingCount="0" stopTime="0.00" timeLoss="16.27" rerouteNo="1" devices="tripinfo_38 routing_38" vType="DEFAULT_VEHTYPE" speedFactor="1.02" vaporized=""/>
    <tripinfo id="37" depart="370.00" departLane="171423001#0_0" departPos="0.20" departSpeed="0.00" departDelay="0.00" arrival="533.00" arrivalLane="1040940511_1" arrivalPos="6.47" arrivalSpeed="12.68" duration="163.00" routeLength="1395.54" waitingTime="17.00" waitingCount="2" stopTime="0.00" timeLoss="39.63" rerouteNo="1" devices="tripinfo_37 routing_37" vType="DEFAULT_VEHTYPE" speedFactor="0.99" vaporized=""/>
    <tripinfo id="50" depart="500.00" departLane="-1105574289#1_0" departPos="4.06" departSpeed="0.00" departDelay="0.00" arrival="549.00" arrivalLane="23017853#0_0" arrivalPos="10.41" arrivalSpeed="6.52" duration="49.00" routeLength="318.79" waitingTime="0.00" waitingCount="0" stopTime="0.00" timeLoss="5.87" rerouteNo="1" devices="tripinfo_50 routing_50" vType="DEFAULT_VEHTYPE" speedFactor="0.90" vaporized=""/>
    <tripinfo id="42" depart="420.00" departLane="1132167289#0_0" departPos="5.10" departSpeed="0.00" departDelay="0.00" arrival="595.00" arrivalLane="-24509317#1_0" arrivalPos="40.13" arrivalSpeed="7.30" duration="175.00" routeLength="1165.63" waitingTime="0.00" waitingCount="0" stopTime="0.00" timeLoss="18.74" rerouteNo="1" devices="tripinfo_42 routing_42" vType="DEFAULT_VEHTYPE" speedFactor="0.90" vaporized=""/>
    <tripinfo id="49" depart="490.00" departLane="81113584#0_0" departPos="5.10" departSpeed="0.00" departDelay="0.00" arrival="599.00" arrivalLane="43376693#1_0" arrivalPos="33.61" arrivalSpeed="7.52" duration="109.00" routeLength="610.39" waitingTime="25.00" waitingCount="1" stopTime="0.00" timeLoss="39.76" rerouteNo="1" devices="tripinfo_49 routing_49" vType="DEFAULT_VEHTYPE" speedFactor="1.00" vaporized=""/>
    <tripinfo id="43" depart="430.00" departLane="884209962#1_0" departPos="5.10" departSpeed="0.00" departDelay="0.00" arrival="602.00" arrivalLane="1238797610#4_0" arrivalPos="4.06" arrivalSpeed="8.06" duration="172.00" routeLength="1178.84" waitingTime="2.00" waitingCount="1" stopTime="0.00" timeLoss="33.61" rerouteNo="1" devices="tripinfo_43 routing_43" vType="DEFAULT_VEHTYPE" speedFactor="1.03" vaporized=""/>
    <tripinfo id="48" depart="480.00" departLane="840229277#1_0" departPos="0.60" departSpeed="0.00" departDelay="0.00" arrival="611.00" arrivalLane="1418921820#3_0" arrivalPos="3.55" arrivalSpeed="8.25" duration="131.00" routeLength="984.54" waitingTime="5.00" waitingCount="4" stopTime="0.00" timeLoss="37.97" rerouteNo="1" devices="tripinfo_48 routing_48" vType="DEFAULT_VEHTYPE" speedFactor="1.09" vaporized=""/>
    <tripinfo id="57" depart="570.00" departLane="4611713#2_0" departPos="2.68" departSpeed="0.00" departDelay="0.00" arrival="618.00" arrivalLane="43376693#5_0" arrivalPos="36.19" arrivalSpeed="8.31" duration="48.00" routeLength="390.59" waitingTime="0.00" waitingCount="0" stopTime="0.00" timeLoss="4.76" rerouteNo="1" devices="tripinfo_57 routing_57" vType="DEFAULT_VEHTYPE" speedFactor="1.10" vaporized=""/>
    <tripinfo id="47" depart="470.00" departLane="-1195383150#2_0" departPos="5.10" departSpeed="0.00" departDelay="0.00" arrival="623.00" arrivalLane="-840229277#1_0" arrivalPos="0.60" arrivalSpeed="7.79" duration="153.00" routeLength="1279.60" waitingTime="4.00" waitingCount="1" stopTime="0.00" timeLoss="20.73" rerouteNo="1" devices="tripinfo_47 routing_47" vType="DEFAULT_VEHTYPE" speedFactor="1.04" vaporized=""/>
    <tripinfo id="53" depart="530.00" departLane="-1426120125#0_0" departPos="5.10" departSpeed="0.00" departDelay="0.00" arrival="628.00" arrivalLane="1127602092#1_0" arrivalPos="22.04" arrivalSpeed="6.85" duration="98.00" routeLength="614.49" waitingTime="0.00" waitingCount="0" stopTime="0.00" timeLoss="10.76" rerouteNo="1" devices="tripinfo_53 routing_53" vType="DEFAULT_VEHTYPE" speedFactor="0.85" vaporized=""/>
    <tripinfo id="54" depart="540.00" departLane="1151333058#0_0" departPos="0.20" departSpeed="0.00" departDelay="0.00" arrival="630.00" arrivalLane="4773029#1_0" arrivalPos="12.90" arrivalSpeed="9.09" duration="90.00" routeLength="830.28" waitingTime="0.00" waitingCount="0" stopTime="0.00" timeLoss="10.93" rerouteNo="1" devices="tripinfo_54 routing_54" vType="DEFAULT_VEHTYPE" speedFactor="1.17" vaporized=""/>
    <tripinfo id="62" depart="620.00" departLane="-1009114665#0_0" departPos="0.20" departSpeed="0.00" departDelay="0.00" arrival="638.00" arrivalLane="-4611714#4_0" arrivalPos="49.49" arrivalSpeed="8.00" duration="18.00" routeLength="124.84" waitingTime="0.00" waitingCount="0" stopTime="0.00" timeLoss="3.08" rerouteNo="1" devices="tripinfo_62 routing_62" vType="DEFAULT_VEHTYPE" speedFactor="1.02" vaporized=""/>
    <tripinfo id="45" depart="450.00" departLane="-1426120123#0_0" departPos="5.10" departSpeed="0.00" departDelay="0.00" arrival="641.00" arrivalLane="147066248#8_0" arrivalPos="2.17" arrivalSpeed="1.87" duration="191.00" routeLength="1029.66" waitingTime="0.00" waitingCount="0" stopTime="0.00" timeLoss="46.24" rerouteNo="1" devices="tripinfo_45 routing_45" vType="DEFAULT_VEHTYPE" speedFactor="1.09" vaporized=""/>
    <tripinfo id="56" depart="560.00" departLane="1238797610#3_0" departPos="5.10" departSpeed="0.00" departDelay="0.00" arrival="661.00" arrivalLane="-147066248#9_0" arrivalPos="17.17" arrivalSpeed="2.50" duration="101.00" routeLength="712.53" waitingTime="0.00" waitingCount="0" stopTime="0.00" timeLoss="10.63" rerouteNo="1" devices="tripinfo_56 routing_56" vType="DEFAULT_VEHTYPE" speedFactor="1.02" vaporized=""/>
    <tripinfo id="65" depart="650.00" departLane="-4773029#1_0" departPos="5.10" departSpeed="0.00" departDelay="0.00" arrival="665.00" arrivalLane="-1159149106#0_0" arrivalPos="1.92" arrivalSpeed="8.41" duration="15.00" routeLength="117.41" waitingTime="0.00" waitingCount="0" stopTime="0.00" timeLoss="4.97" rerouteNo="1" devices="tripinfo_65 routing_65" vType="DEFAULT_VEHTYPE" speedFactor="1.08" vaporized=""/>
    <tripinfo id="65.1" depart="653.00" departLane="-4773029#1_0" departPos="5.10" departSpeed="0.00" departDelay="3.00" arrival="668.00" arrivalLane="-1159149106#0_0" arrivalPos="1.92" arrivalSpeed="8.89" duration="15.00" routeLength="117.41" waitingTime="0.00" waitingCount="0" stopTime="0.00" timeLoss="5.52" rerouteNo="1" devices="tripinfo_65.1 routing_65.1" vType="DEFAULT_VEHTYPE" speedFactor="1.12" vaporized=""/>
    <tripinfo id="65.2" depart="656.00" departLane="-4773029#1_0" departPos="5.10" departSpeed="0.00" departDelay="6.00" arrival="671.00" arrivalLane="-1159149106#0_0" arrivalPos="1.92" arrivalSpeed="7.55" duration="15.00" routeLength="117.41" waitingTime="0.00" waitingCount="0" stopTime="0.00" timeLoss="4.68" rerouteNo="1" devices="tripinfo_65.2 routing_65.2" vType="DEFAULT_VEHTYPE" speedFactor="1.02" vaporized=""/>
    <tripinfo id="65.3" depart="659.00" departLane="-4773029#1_0" departPos="5.10" departSpeed="0.00" departDelay="9.00" arrival="674.00" arrivalLane="-1159149106#0_0" arrivalPos="1.92" arrivalSpeed="8.10" duration="15.00" routeLength="117.41" waitingTime="0.00" waitingCount="0" stopTime="0.00" timeLoss="4.11" rerouteNo="1" devices="tripinfo_65.3 routing_65.3" vType="DEFAULT_VEHTYPE" speedFactor="0.99" vaporized=""/>
    <tripinfo id="65.4" depart="662.00" departLane="-4773029#1_0" departPos="5.10" departSpeed="0.00" departDelay="12.00" arrival="677.00" arrivalLane="-1159149106#0_0" arrivalPos="1.92" arrivalSpeed="7.72" duration="15.00" routeLength="117.41" waitingTime="0.00" waitingCount="0" stopTime="0.00" timeLoss="3.59" rerouteNo="1" devices="tripinfo_65.4 routing_65.4" vType="DEFAULT_VEHTYPE" speedFactor="0.94" vaporized=""/>
    <tripinfo id="65.5" depart="665.00" departLane="-4773029#1_0" departPos="5.10" departSpeed="0.00" departDelay="15.00" arrival="680.00" arrivalLane="-1159149106#0_0" arrivalPos="1.92" arrivalSpeed="6.79" duration="15.00" routeLength="117.41" waitingTime="0.00" waitingCount="0" stopTime="0.00" timeLoss="3.11" rerouteNo="1" devices="tripinfo_65.5 routing_65.5" vType="DEFAULT_VEHTYPE" speedFactor="0.88" vaporized=""/>
    <tripinfo id="52" depart="520.00" departLane="-4611708#3_0" departPos="5.10" departSpeed="0.00" departDelay="0.00" arrival="682.00" arrivalLane="168514765#1_0" arrivalPos="15.53" arrivalSpeed="11.79" duration="162.00" routeLength="1052.79" waitingTime="11.00" waitingCount="1" stopTime="0.00" timeLoss="33.57" rerouteNo="1" devices="tripinfo_52 routing_52" vType="DEFAULT_VEHTYPE" speedFactor="0.85" vaporized=""/>
    <tripinfo id="65.6" depart="668.00" departLane="-4773029#1_0" departPos="5.10" departSpeed="0.00" departDelay="18.00" arrival="683.00" arrivalLane="-1159149106#0_0" arrivalPos="1.92" arrivalSpeed="6.74" duration="15.00" routeLength="117.41" waitingTime="0.00" waitingCount="0" stopTime="0.00" timeLoss="3.36" rerouteNo="1" devices="tripinfo_65.6 routing_65.6" vType="DEFAULT_VEHTYPE" speedFactor="0.91" vaporized=""/>
    <tripinfo id="65.7" depart="671.00" departLane="-4773029#1_0" departPos="5.10" departSpeed="0.00" departDelay="21.00" arrival="686.00" arrivalLane="-1159149106#0_0" arrivalPos="1.92" arrivalSpeed="7.07" duration="15.00" routeLength="117.41" waitingTime="0.00" waitingCount="0" stopTime="0.00" timeLoss="3.48" rerouteNo="1" devices="tripinfo_65.7 routing_65.7" vType="DEFAULT_VEHTYPE" speedFactor="0.91" vaporized=""/>
    <tripinfo id="58" depart="580.00" departLane="-4611718#2_0" departPos="5.10" departSpeed="0.00" departDelay="0.00" arrival="692.00" arrivalLane="16374191#1_1" arrivalPos="29.27" arrivalSpeed="8.12" duration="112.00" routeLength="796.62" waitingTime="0.00" waitingCount="0" stopTime="0.00" timeLoss="14.80" rerouteNo="1" devices="tripinfo_58 routing_58" vType="DEFAULT_VEHTYPE" speedFactor="1.00" vaporized=""/>
    <tripinfo id="59" depart="590.00" departLane="147066248#3_0" departPos="5.10" departSpeed="0.00" departDelay="0.00" arrival="709.00" arrivalLane="-1426897603#0_0" arrivalPos="0.20" arrivalSpeed="7.66" duration="119.00" routeLength="527.21" waitingTime="18.00" waitingCount="1" stopTime="0.00" timeLoss="39.33" rerouteNo="1" devices="tripinfo_59 routing_59" vType="DEFAULT_VEHTYPE" speedFactor="1.00" vaporized=""/>
    <tripinfo id="61" depart="610.00" departLane="375311153#0_0" departPos="5.10" departSpeed="0.00" departDelay="0.00" arrival="711.00" arrivalLane="1418921820#3_0" arrivalPos="3.55" arrivalSpeed="8.47" duration="101.00" routeLength="831.04" waitingTime="12.00" waitingCount="1" stopTime="0.00" timeLoss="27.55" rerouteNo="1" devices="tripinfo_61 routing_61" vType="DEFAULT_VEHTYPE" speedFactor="1.14" vaporized=""/>
    <tripinfo id="51" depart="510.00" departLane="196850607#2_0" departPos="5.10" departSpeed="0.00" departDelay="0.00" arrival="715.00" arrivalLane="1418921820#3_0" arrivalPos="3.55" arrivalSpeed="6.39" duration="205.00" routeLength="1361.62" waitingTime="29.00" waitingCount="3" stopTime="0.00" timeLoss="65.38" rerouteNo="1" devices="tripinfo_51 routing_51" vType="DEFAULT_VEHTYPE" speedFactor="0.88" vaporized=""/>
    <tripinfo id="73" depart="730.00" departLane="1421427239#0_0" departPos="5.10" departSpeed="0.00" departDelay="0.00" arrival="738.00" arrivalLane="233833576#0_0" arrivalPos="42.69" arrivalSpeed="14.22" duration="8.00" routeLength="73.18" waitingTime="0.00" waitingCount="0" stopTime="0.00" timeLoss="2.46" rerouteNo="1" devices="tripinfo_73 routing_73" vType="DEFAULT_VEHTYPE" speedFactor="1.07" vaporized=""/>