<?xml version="1.0" encoding="UTF-8"?>

<!-- generated on 2025-11-12 11:04:38 by Eclipse SUMO sumo Version 1.20.0
<configuration xmlns:xsi="http://www.w3.org/2001/XMLSchema-instance" xsi:noNamespaceSchemaLocation="http://sumo.dlr.de/xsd/sumoConfiguration.xsd">

    <input>
        <net-file value="/Users/sohamghadge/Documents/Final_Project/TrafficLearningproject/src/scenarios/4x4_grid/osm.net.xml.gz"/>
        <route-files value="/Users/sohamghadge/Documents/Final_Project/TrafficLearningproject/src/scenarios/4x4_grid/medium_traffic.rou.xml"/>
        <additional-files value="/Users/sohamghadge/Documents/Final_Project/TrafficLearningproject/src/scenarios/4x4_grid/osm.poly.xml.gz,/Users/sohamghadge/Documents/Final_Project/TrafficLearningproject/src/scenarios/4x4_grid/output.add.xml"/>
    </input>

    <output>
        <tripinfo-output value="/Users/sohamghadge/Documents/Final_Project/TrafficLearningproject/src/scenarios/city4x4/medium/tripinfos.xml"/>
        <statistic-output value="/Users/sohamghadge/Documents/Final_Project/TrafficLearningproject/src/scenarios/city4x4/medium/stats.xml"/>
    </output>

    <time>
        <begin value="0"/>
        <end value="3600"/>
        <step-length value="1.0"/>
    </time>

    <processing>
        <ignore-route-errors value="true"/>
        <collision.action value="warn"/>
        <time-to-teleport value="300"/>
        <waiting-time-memory value="1000"/>
        <tls.actuated.jam-threshold value="30"/>
        <emergencydecel.warning-threshold value="4.0"/>
    </processing>

    <routing>
        <device.rerouting.adaptation-steps value="18"/>
        <device.rerouting.adaptation-interval value="10"/>
    </routing>

    <report>
        <verbose value="false"/>
        <no-warnings value="true"/>
        <duration-l-->

<meandata xmlns:xsi="http://www.w3.org/2001/XMLSchema-instance" xsi:noNamespaceSchemaLocation="http://sumo.dlr.de/xsd/meandata_file.xsd">
    <interval begin="0.00" end="2613.00" id="wizard_example">
        <edge id="-1009114665#0" sampledSeconds="33.75" traveltime="0.04" overlapTr-->

<meandata xmlns:xsi="http://www.w3.org/2001/XMLSchema-instance" xsi:noNamespaceSchemaLocation="http://sumo.dlr.de/xsd/meandata_file.xsd">
</meandata>
ived="0" entered="28" left="34" laneChangedFrom="0" laneChangedTo="0"/>
        <edge id="-1009114665#1" sampledSeconds="38.26" traveltime="0.38" overlapTraveltime="1.26" density="5.00" laneDensity="5.00" occupancy="0.99" waitingTime="0.00" timeLoss="9.05" speed="6.31" speedRelative="0.76" departed="6" arrived="6" entered="28" left="28" laneChangedFrom="0" laneChangedTo="0"/>
        <edge id="-1009114665#2" sampledSeconds="179.60" traveltime="3.65" overlapTraveltime="4.33" density="3.27" laneDensity="3.27" occupancy="1.30" waitingTime="0.00" timeLoss="50.59" speed="6.02" speedRelative="0.72" departed="7" arrived="16" entered="37" left="28" laneChangedFrom="0" laneChangedTo="0"/>
        <edge id="-104428005#0" sampledSeconds="0.00" departed="0" arrived="0" entered="0" left="0" laneChangedFrom="0" laneChangedTo="0"/>
        <edge id="-105747086#0" sampledSeconds="0.00" departed="0" arrived="0" entered="0" left="0" laneChangedFrom="0" laneChangedTo="0"/>
        <edge id="-105747086#1" sampledSeconds="0.00" departed="0" arrived="0" entered="0" left="0" laneChangedFrom="0" laneChangedTo="0"/>
        <edge id="-1073015940#0" sampledSeconds="1901.93" traveltime="13.77" overlapTraveltime="14.51" density="16.38" laneDensity="16.38" occupancy="7.76" waitingTime="815.00" timeLoss="1115.25" speed="3.41" speedRelative="0.41" departed="17" arrived="2" entered="116" left="131" laneChangedFrom="0" laneChangedTo="0"/>
        <edge id="-1086959492" sampledSeconds="0.00" departed="0" arrived="0" entered="0" left="0" laneChangedFrom="0" laneChangedTo="0"/>
        <edge id="-1105574289#1" sampledSeconds="542.43" traveltime="0.72" overlapTraveltime="1.68" density="51.13" laneDensity="51.13" occupancy="12.73" waitingTime="79.00" timeLoss="181.89" speed="5.40" speedRelative="0.65" departed="9" arrived="0" entered="319" left="328" laneChangedFrom="0" laneChangedTo="0"/>
        <edge id="-1124910114#0" sampledSeconds="0.00" departed="0" arrived="0" entered="0" left="0" laneChangedFrom="0" laneChangedTo="0"/>
        <edge id="-1124910114#1" sampledSeconds="0.00" departed="0" arrived="0" entered="0" left="0" laneChangedFrom="0" laneChangedTo="0"/>
        <edge id="-1124910119#0" sampledSeconds="0.00" departed="0" arrived="0" entered="0" left="0" laneChangedFrom="0" laneChangedTo="0"/>
        <edge id="-1124910119#1" sampledSeconds="0.00" departed="0" arrived="0" entered="0" left="0" laneChangedFrom="0" laneChangedTo="0"/>
        <edge id="-1127602092#0" sampledSeconds="1100.54" traveltime="7.31" overlapTraveltime="9.34" density="10.26" laneDensity="10.26" occupancy="4.35" waitingTime="236.00" timeLoss="442.01" speed="4.93" speedRelative="0.59" departed="10" arrived="3" entered="109" left="116" laneChangedFrom="0" laneChangedTo="0"/>
        <edge id="-1127602092#1" sampledSeconds="329.58" traveltime="3.30" overlapTraveltime="4.60" density="5.73" laneDensity="5.73" occupancy="2.29" waitingTime="40.00" timeLoss="91.71" speed="5.88" speedRelative="0.71" departed="6" arrived="3" entered="67" left="70" laneChangedFrom="0" laneChangedTo="0"/>
        <edge id="-1127602336#1" sampledSeconds="731.31" traveltime="3.05" overlapTraveltime="3.81" density="8.42" laneDensity="8.42" occupancy="3.52" waitingTime="62.00" timeLoss="188.77" speed="10.02" speedRelative="0.72" departed="7" arrived="6" entered="186" left="186" laneChangedFrom="0" laneChangedTo="0"/>
        <edge id="-1132162834#0" sampledSeconds="585.21" traveltime="17.72" overlapTraveltime="18.59" density="2.06" laneDensity="2.06" occupancy="0.99" waitingTime="80.00" timeLoss="169.20" speed="6.12" speedRelative="0.73" departed="6" arrived="5" entered="27" left="25" laneChangedFrom="0" laneChangedTo="0"/>
        <edge id="-1132164863" sampledSeconds="1474.84" traveltime="12.58" overlapTraveltime="13.26" density="6.37" laneDensity="3.19" occupancy="1.52" waitingTime="1.00" timeLoss="246.98" speed="7.06" speedRelative="0.85" departed="12" arrived="8" entered="100" left="104" laneChangedFrom="1" laneChangedTo="1"/>
        <edge id="-1132164893#0" sampledSeconds="164.97" traveltime="0.67" overlapTraveltime="1.54" density="26.20" laneDensity="26.20" occupancy="4.15" waitingTime="13.00" timeLoss="104.35" speed="4.82" speedRelative="0.35" departed="7" arrived="14" entered="104" left="97" laneChangedFrom="0" laneChangedTo="0"/>
        <edge id="-1132167289#1" sampledSeconds="37.32" traveltime="0.85" overlapTraveltime="1.51" density="2.24" laneDensity="2.24" occupancy="0.66" waitingTime="0.00" timeLoss="3.23" speed="7.55" speedRelative="0.91" departed="0" arrived="28" entered="28" left="0" laneChangedFrom="0" laneChangedTo="0"/>
        <edge id="-1136657259#0" sampledSeconds="174.12" traveltime="8.82" overlapTraveltime="9.77" density="1.07" laneDensity="1.07" occupancy="0.50" waitingTime="0.00" timeLoss="29.91" speed="6.86" speedRelative="0.82" departed="0" arrived="12" entered="18" left="6" laneChangedFrom="0" laneChangedTo="0"/>
        <edge id="-1136657266" sampledSeconds="396.57" traveltime="15.74" overlapTraveltime="16.68" density="2.36" laneDensity="2.36" occupancy="1.11" waitingTime="135.00" timeLoss="203.63" speed="4.15" speedRelative="0.50" departed="0" arrived="14" entered="24" left="10" laneChangedFrom="0" laneChangedTo="0"/>
        <edge id="-1149365726#0" sampledSeconds="0.00" departed="0" arrived="0" entered="0" left="0" laneChangedFrom="0" laneChangedTo="0"/>
        <edge id="-1149365726#1" sampledSeconds="0.00" departed="0" arrived="0" entered="0" left="0" laneChangedFrom="0" laneChangedTo="0"/>
        <edge id="-1151333056" sampledSeconds="1139.74" traveltime="5.60" overlapTraveltime="6.28" density="10.76" laneDensity="10.76" occupancy="4.78" waitingTime="0.00" timeLoss="135.44" speed="7.25" speedRelative="0.87" departed="3" arrived="6" entered="179" left="176" laneChangedFrom="0" laneChangedTo="0"/>
        <edge id="-1151333057#1" sampledSeconds="427.94" traveltime="2.50" overlapTraveltime="3.23" density="19.13" laneDensity="19.13" occupancy="7.49" waitingTime="155.00" timeLoss="210.01" speed="4.20" speedRelative="0.50" departed="3" arrived="7" entered="131" left="127" laneChangedFrom="0" laneChangedTo="0"/>
        <edge id="-1151333058#0" sampledSeconds="939.16" traveltime="5.98" overlapTraveltime="7.08" density="133.33" laneDensity="133.33" occupancy="22.04" waitingTime="753.29" timeLoss="849.64" speed="0.73" speedRelative="0.09" departed="7" arrived="8" entered="129" left="127" laneChangedFrom="0" laneChangedTo="0"/>
        <edge id="-1151333058#1" sampledSeconds="3559.32" traveltime="20.56" overlapTraveltime="27.38" density="43.33" laneDensity="43.33" occupancy="16.79" waitingTime="2293.00" timeLoss="2981.94" speed="1.33" speedRelative="0.16" departed="5" arrived="0" entered="127" left="129" laneChangedFrom="0" laneChangedTo="0"/>
        <edge id="-1159149106#0" sampledSeconds="24.36" traveltime="0.25" overlapTraveltime="0.90" density="4.86" laneDensity="4.86" occupancy="0.70" waitingTime="0.00" timeLoss="1.80" speed="7.68" speedRelative="0.92" departed="0" arrived="35" entered="35" left="0" laneChangedFrom="0" laneChangedTo="0"/>
        <edge id="-1163350372#0" sampledSeconds="0.00" departed="0" arrived="0" entered="0" left="0" laneChangedFrom="0" laneChangedTo="0"/>
        <edge id="-1163350372#1" sampledSeconds="0.00" departed="0" arrived="0" entered="0" left="0" laneChangedFrom="0" laneChangedTo="0"/>
        <edge id="-1163350372#2" sampledSeconds="0.00" departed="0" arrived="0" entered="0" left="0" laneChangedFrom="0" laneChangedTo="0"/>
        <edge id="-1171262820#0" sampledSeconds="0.00" departed="0" arrived="0" entered="0" left="0" laneChangedFrom="0" laneChangedTo="0"/>
        <edge id="-1171262820#1" sampledSeconds="0.00" departed="0" arrived="0" entered="0" left="0" laneChangedFrom="0" laneChangedTo="0"/>
        <edge id="-1171262821#0" sampledSeconds="0.00" departed="0" arrived="0" entered="0" left="0" laneChangedFrom="0" laneChangedTo="0"/>
        <edge id="-1171262821#1" sampledSeconds="0.00" departed="0" arrived="0" entered="0" left="0" laneChangedFrom="0" laneChangedTo="0"/>
        <edge id="-1171262822#0" sampledSeconds="0.00" departed="0" arrived="0" entered="0" left="0" laneChangedFrom="0" laneChangedTo="0"/>
        <edge id="-1171262822#1" sampledSeconds="0.00" departed="0" arrived="0" entered="0" left="0" laneChangedFrom="0" laneChangedTo="0"/>
        <edge id="-1178379945#0" sampledSeconds="0.00" departed="0" arrived="0" entered="0" left="0" laneChangedFrom="0" laneChangedTo="0"/>
        <edge id="-1178379945#1" sampledSeconds="0.00" departed="0" arrived="0" entered="0" left="0" laneChangedFrom="0" laneChangedTo="0"/>
        <edge id="-1178379945#2" sampledSeconds="0.00" departed="0" arrived="0" entered="0" left="0" laneChangedFrom="0" laneChangedTo="0"/>
        <edge id="-1187575246" sampledSeconds="249.72" traveltime="1.79" overlapTraveltime="2.50" density="8.66" laneDensity="8.66" occupancy="3.13" waitingTime="16.00" timeLoss="54.96" speed="6.41" speedRelative="0.77" departed="5" arrived="7" entered="97" left="95" laneChangedFrom="0" laneChangedTo="0"/>
        <edge id="-1187575247#0" sampledSeconds="0.00" departed="0" arrived="0" entered="0" left="0" laneChangedFrom="0" laneChangedTo="0"/>
        <edge id="-1187575247#1" sampledSeconds="0.00" departed="0" arrived="0" entered="0" left="0" laneChangedFrom="0" laneChangedTo="0"/>
        <edge id="-1187575252#0" sampledSeconds="0.00" departed="0" arrived="0" entered="0" left="0" laneChangedFrom="0" laneChangedTo="0"/>
        <edge id="-1187575252#1" sampledSeconds="0.00" departed="0" arrived="0" entered="0" left="0" laneChangedFrom="0" laneChangedTo="0"/>
        <edge id="-1190781962#0" sampledSeconds="160.98" traveltime="5.72" overlapTraveltime="6.99" density="2.49" laneDensity="2.49" occupancy="1.10" waitingTime="23.00" timeLoss="65.97" speed="4.26" speedRelative="0.51" departed="7" arrived="14" entered="18" left="11" laneChangedFrom="0" laneChangedTo="0"/>
        <edge id="-1190781965" sampledSeconds="2214.20" traveltime="6.54" overlapTraveltime="7.52" density="52.53" laneDensity="52.53" occupancy="21.57" waitingTime="853.30" timeLoss="1674.33" speed="2.81" speedRelative="0.20" departed="5" arrived="3" entered="291" left="292" laneChangedFrom="0" laneChangedTo="0"/>
        <edge id="-1195383150#2" sampledSeconds="212.92" traveltime="4.76" overlapTraveltime="5.48" density="4.14" laneDensity="4.14" occupancy="1.88" waitingTime="0.00" timeLoss="99.30" speed="4.51" speedRelative="0.54" departed="49" arrived="0" entered="0" left="49" laneChangedFrom="0" laneChangedTo="0"/>
        <edge id="-1197290650#0" sampledSeconds="0.00" departed="0" arrived="0" entered="0" left="0" laneChangedFrom="0" laneChangedTo="0"/>
        <edge id="-1211979595" sampledSeconds="0.00" departed="0" arrived="0" entered="0" left="0" laneChangedFrom="0" laneChangedTo="0"/>
        <edge id="-1228777606#0" sampledSeconds="0.00" departed="0" arrived="0" entered="0" left="0" laneChangedFrom="0" laneChangedTo="0"/>
        <edge id="-1228777607#0" sampledSeconds="0.00" departed="0" arrived="0" entered="0" left="0" laneChangedFrom="0" laneChangedTo="0"/>
        <edge id="-1228777608#0" sampledSeconds="0.00" departed="0" arrived="0" entered="0" left="0" laneChangedFrom="0" laneChangedTo="0"/>
        <edge id="-1228777608#1" sampledSeconds="0.00" departed="0" arrived="0" entered="0" left="0" laneChangedFrom="0" laneChangedTo="0"/>
        <edge id="-1228777609#0" sampledSeconds="0.00" departed="0" arrived="0" entered="0" left="0" laneChangedFrom="0" laneChangedTo="0"/>
        <edge id="-1228777609#1" sampledSeconds="0.00" departed="0" arrived="0" entered="0" left="0" laneChangedFrom="0" laneChangedTo="0"/>
        <edge id="-1233790389" sampledSeconds="283.41" traveltime="1.43" overlapTraveltime="2.23" density="14.38" laneDensity="14.38" occupancy="4.73" waitingTime="17.00" timeLoss="91.27" speed="5.61" speedRelative="0.67" departed="10" arrived="8" entered="122" left="124" laneChangedFrom="0" laneChangedTo="0"/>
        <edge id="-1233798019#0" sampledSeconds="1666.23" traveltime="29.51" overlapTraveltime="30.63" density="8.39" laneDensity="8.39" occupancy="4.09" waitingTime="937.00" timeLoss="1140.95" speed="2.64" speedRelative="0.32" departed="6" arrived="3" entered="49" left="50" laneChangedFrom="0" laneChangedTo="0"/>
        <edge id="-1249342904#0" sampledSeconds="802.72" traveltime="3.86" overlapTraveltime="4.80" density="41.07" laneDensity="41.07" occupancy="16.60" waitingTime="366.00" timeLoss="532.25" speed="2.60" speedRelative="0.31" departed="9" arrived="2" entered="162" left="169" laneChangedFrom="0" laneChangedTo="0"/>
        <edge id="-1249342904#1" sampledSeconds="1056.72" traveltime="3.59" overlapTraveltime="6.39" density="28.64" laneDensity="28.64" occupancy="8.37" waitingTime="524.00" timeLoss="670.41" speed="2.99" speedRelative="0.36" departed="10" arrived="7" entered="159" left="162" laneChangedFrom="0" laneChangedTo="0"/>
        <edge id="-1301030066#0" sampledSeconds="0.00" departed="0" arrived="0" entered="0" left="0" laneChangedFrom="0" laneChangedTo="0"/>
        <edge id="-1307864983" sampledSeconds="0.00" departed="0" arrived="0" entered="0" left="0" laneChangedFrom="0" laneChangedTo="0"/>
        <edge id="-1307864984#0" sampledSeconds="0.00" departed="0" arrived="0" entered="0" left="0" laneChangedFrom="0" laneChangedTo="0"/>
        <edge id="-1387909223" sampledSeconds="0.00" departed="0" arrived="0" entered="0" left="0" laneChangedFrom="0" laneChangedTo="0"/>
        <edge id="-1388649493#1" sampledSeconds="0.00" departed="0" arrived="0" entered="0" left="0" laneChangedFrom="0" laneChangedTo="0"/>
        <edge id="-1420810367#0" sampledSeconds="0.00" departed="0" arrived="0" entered="0" left="0" laneChangedFrom="0" laneChangedTo="0"/>
        <edge id="-1420810367#1" sampledSeconds="0.00" departed="0" arrived="0" entered="0" left="0" laneChangedFrom="0" laneChangedTo="0"/>
        <edge id="-1420810368#0" sampledSeconds="0.00" departed="0" arrived="0" entered="0" left="0" laneChangedFrom="0" laneChangedTo="0"/>
        <edge id="-1420810368#1" sampledSeconds="0.00" departed="0" arrived="0" entered="0" left="0" laneChangedFrom="0" laneChangedTo="0"/>
        <edge id="-1421427239#0" sampledSeconds="87.11" traveltime="1.00" overlapTraveltime="1.95" density="5.40" laneDensity="5.40" occupancy="1.62" waitingTime="0.00" timeLoss="26.01" speed="5.74" speedRelative="0.69" departed="13" arrived="8" entered="38" left="43" laneChangedFrom="0" laneChangedTo="0"/>
        <edge id="-1423958086#0" sampledSeconds="491.93" traveltime="2.07" overlapTraveltime="2.51" density="9.89" laneDensity="9.89" occupancy="3.90" waitingTime="0.00" timeLoss="149.08" speed="9.56" speedRelative="0.69" departed="9" arrived="13" entered="190" left="186" laneChangedFrom="0" laneChangedTo="0"/>
        <edge id="-1423958087" sampledSeconds="467.25" overlapTraveltime="8.84" density="133.33" laneDensity="133.33" occupancy="17.85" waitingTime="359.00" timeLoss="439.79" speed="0.58" speedRelative="0.07" departed="55" arrived="0" entered="0" left="54" laneChangedFrom="0" laneChangedTo="0"/>
        <edge id="-1423958088#0" sampledSeconds="1760.53" traveltime="7.89" overlapTraveltime="8.78" density="13.55" laneDensity="13.55" occupancy="6.18" waitingTime="69.00" timeLoss="424.96" speed="6.24" speedRelative="0.75" departed="12" arrived="8" entered="190" left="194" laneChangedFrom="0" laneChangedTo="0"/>
        <edge id="-1424068492#0" sampledSeconds="0.00" departed="0" arrived="0" entered="0" left="0" laneChangedFrom="0" laneChangedTo="0"/>
        <edge id="-1424634880#0" sampledSeconds="1977.67" traveltime="6.39" overlapTraveltime="6.91" density="9.99" laneDensity="9.99" occupancy="4.65" waitingTime="7.00" timeLoss="290.06" speed="11.70" speedRelative="0.84" departed="7" arrived="12" entered="280" left="275" laneChangedFrom="0" laneChangedTo="0"/>
        <edge id="-1424634884#0" sampledSeconds="2444.14" traveltime="6.87" overlapTraveltime="7.46" density="12.94" laneDensity="12.94" occupancy="6.02" waitingTime="139.00" timeLoss="585.89" speed="10.35" speedRelative="0.75" departed="12" arrived="8" entered="318" left="319" laneChangedFrom="0" laneChangedTo="0"/>
        <edge id="-1424668407#0" sampledSeconds="4346.36" traveltime="16.58" overlapTraveltime="17.43" density="22.86" laneDensity="22.86" occupancy="11.02" waitingTime="1484.00" timeLoss="2926.21" speed="4.46" speedRelative="0.32" departed="4" arrived="5" entered="246" left="244" laneChangedFrom="0" laneChangedTo="0"/>
        <edge id="-1424675345#0" sampledSeconds="302.81" traveltime="1.85" overlapTraveltime="2.78" density="133.33" laneDensity="133.33" occupancy="10.22" waitingTime="145.00" timeLoss="216.80" speed="2.00" speedRelative="0.24" departed="23" arrived="5" entered="90" left="108" laneChangedFrom="0" laneChangedTo="0"/>
        <edge id="-1426079060#0" sampledSeconds="104.53" traveltime="0.04" overlapTraveltime="1.18" density="133.33" laneDensity="133.33" occupancy="3.85" waitingTime="0.00" timeLoss="33.66" speed="4.41" speedRelative="0.32" departed="0" arrived="45" entered="97" left="52" laneChangedFrom="0" laneChangedTo="0"/>
        <edge id="-1426120123#0" sampledSeconds="1282.50" traveltime="4.40" overlapTraveltime="5.13" density="17.13" laneDensity="17.13" occupancy="7.34" waitingTime="38.00" timeLoss="265.02" speed="6.56" speedRelative="0.79" departed="4" arrived="12" entered="248" left="239" laneChangedFrom="0" laneChangedTo="0"/>
        <edge id="-1426120125#0" sampledSeconds="3587.73" traveltime="10.19" overlapTraveltime="10.97" density="23.04" laneDensity="23.04" occupancy="10.74" waitingTime="213.00" timeLoss="1025.54" speed="5.89" speedRelative="0.71" departed="4" arrived="6" entered="324" left="319" laneChangedFrom="0" laneChangedTo="0"/>
        <edge id="-1426120125#3" sampledSeconds="290.42" traveltime="0.05" overlapTraveltime="1.16" density="133.33" laneDensity="133.33" occupancy="10.33" waitingTime="80.00" timeLoss="131.28" speed="4.47" speedRelative="0.54" departed="11" arrived="8" entered="242" left="245" laneChangedFrom="0" laneChangedTo="0"/>
        <edge id="-1426216315#0" sampledSeconds="1343.71" traveltime="7.44" overlapTraveltime="8.19" density="19.13" laneDensity="19.13" occupancy="8.65" waitingTime="526.00" timeLoss="705.11" speed="3.89" speedRelative="0.47" departed="4" arrived="6" entered="161" left="159" laneChangedFrom="0" laneChangedTo="0"/>
        <edge id="-1426216316#0" sampledSeconds="6876.93" traveltime="57.12" overlapTraveltime="58.33" density="14.73" laneDensity="14.73" occupancy="7.26" waitingTime="2995.00" timeLoss="4237.25" speed="3.15" speedRelative="0.38" departed="10" arrived="11" entered="112" left="102" laneChangedFrom="0" laneChangedTo="0"/>
        <edge id="-1426268094#0" sampledSeconds="0.00" departed="0" arrived="0" entered="0" left="0" laneChangedFrom="0" laneChangedTo="0"/>
        <edge id="-1426723954#0" sampledSeconds="0.00" departed="0" arrived="0" entered="0" left="0" laneChangedFrom="0" laneChangedTo="0"/>
        <edge id="-1426723954#1" sampledSeconds="0.00" departed="0" arrived="0" entered="0" left="0" laneChangedFrom="0" laneChangedTo="0"/>
        <edge id="-1426727707#0" sampledSeconds="1338.21" traveltime="14.24" overlapTraveltime="14.91" density="4.83" laneDensity="4.83" occupancy="2.30" waitingTime="0.00" timeLoss="142.66" speed="7.45" speedRelative="0.89" departed="2" arrived="5" entered="88" left="85" laneChangedFrom="0" laneChangedTo="0"/>
        <edge id="-1426727709#0" sampledSeconds="0.00" departed="0" arrived="0" entered="0" left="0" laneChangedFrom="0" laneChangedTo="0"/>
        <edge id="-1426727709#1" sampledSeconds="0.00" departed="0" arrived="0" entered="0" left="0" laneChangedFrom="0" laneChangedTo="0"/>
        <edge id="-1426897598#0" sampledSeconds="569.83" traveltime="2.59" overlapTraveltime="3.30" density="13.26" laneDensity="13.26" occupancy="5.17" waitingTime="13.00" timeLoss="121.35" speed="6.50" speedRelative="0.78" departed="6" arrived="12" entered="170" left="163" laneChangedFrom="0" laneChangedTo="0"/>
        <edge id="-1426897602#0" sampledSeconds="5466.91" traveltime="22.18" overlapTraveltime="24.19" density="19.59" laneDensity="19.59" occupancy="9.21" waitingTime="1306.00" timeLoss="2426.29" speed="4.62" speedRelative="0.55" departed="3" arrived="10" entered="224" left="215" laneChangedFrom="0" laneChangedTo="0"/>
        <edge id="-1426897603#0" sampledSeconds="14.07" traveltime="0.03" overlapTraveltime="0.69" density="26.93" laneDensity="26.93" occupancy="0.52" waitingTime="0.00" timeLoss="1.06" speed="7.58" speedRelative="0.91" departed="0" arrived="31" entered="31" left="0" laneChangedFrom="0" laneChangedTo="0"/>
        <edge id="-1426897603#3" sampledSeconds="1115.37" traveltime="4.27" overlapTraveltime="5.43" density="133.33" laneDensity="133.33" occupancy="24.83" waitingTime="872.27" timeLoss="978.85" speed="0.96" speedRelative="0.11" departed="0" arrived="14" entered="209" left="195" laneChangedFrom="0" laneChangedTo="0"/>
        <edge id="-147029844#0" sampledSeconds="0.00" departed="0" arrived="0" entered="0" left="0" laneChangedFrom="0" laneChangedTo="0"/>
        <edge id="-147029845#0" sampledSeconds="0.00" departed="0" arrived="0" entered="0" left="0" laneChangedFrom="0" laneChangedTo="0"/>
        <edge id="-147029846#0" sampledSeconds="0.00" departed="0" arrived="0" entered="0" left="0" laneChangedFrom="0" laneChangedTo="0"/>
        <edge id="-147029846#1" sampledSeconds="0.00" departed="0" arrived="0" entered="0" left="0" laneChangedFrom="0" laneChangedTo="0"/>
        <edge id="-147066248#1" sampledSeconds="1397.20" traveltime="18.78" overlapTraveltime="20.37" density="17.99" laneDensity="17.99" occupancy="8.19" waitingTime="235.00" timeLoss="599.76" speed="1.70" speedRelative="0.61" departed="5" arrived="4" entered="65" left="65" laneChangedFrom="0" laneChangedTo="0"/>
        <edge id="-147066248#2" sampledSeconds="213.91" traveltime="0.77" overlapTraveltime="3.35" density="50.85" laneDensity="50.85" occupancy="6.29" waitingTime="0.00" timeLoss="59.75" speed="1.97" speedRelative="0.71" departed="8" arrived="2" entered="59" left="65" laneChangedFrom="0" laneChangedTo="0"/>
        <edge id="-147066248#3" sampledSeconds="585.78" traveltime="6.84" overlapTraveltime="9.37" density="16.40" laneDensity="16.40" occupancy="6.23" waitingTime="0.00" timeLoss="163.18" speed="1.99" speedRelative="0.72" departed="16" arrived="10" entered="53" left="59" laneChangedFrom="0" laneChangedTo="0"/>
        <edge id="-147066248#4" sampledSeconds="734.57" traveltime="9.86" overlapTraveltime="12.31" density="14.23" laneDensity="14.23" occupancy="5.81" waitingTime="0.00" timeLoss="209.33" speed="2.01" speedRelative="0.72" departed="8" arrived="10" entered="55" left="53" laneChangedFrom="0" laneChangedTo="0"/>
        <edge id="-147066248#5" sampledSeconds="641.82" traveltime="8.09" overlapTraveltime="10.59" density="14.96" laneDensity="14.96" occupancy="5.82" waitingTime="0.00" timeLoss="180.66" speed="2.02" speedRelative="0.73" departed="5" arrived="8" entered="59" left="55" laneChangedFrom="0" laneChangedTo="0"/>
        <edge id="-147066248#6" sampledSeconds="417.00" traveltime="4.80" overlapTraveltime="7.22" density="16.64" laneDensity="16.64" occupancy="5.62" waitingTime="1.00" timeLoss="116.31" speed="2.02" speedRelative="0.73" departed="10" arrived="2" entered="53" left="60" laneChangedFrom="0" laneChangedTo="0"/>
        <edge id="-147066248#7" sampledSeconds="291.62" traveltime="2.85" overlapTraveltime="5.39" density="18.98" laneDensity="18.98" occupancy="5.13" waitingTime="0.00" timeLoss="82.44" speed="2.02" speedRelative="0.73" departed="3" arrived="4" entered="54" left="53" laneChangedFrom="0" laneChangedTo="0"/>
        <edge id="-147066248#8" sampledSeconds="194.66" traveltime="1.07" overlapTraveltime="3.68" density="34.33" laneDensity="34.33" occupancy="5.39" waitingTime="2.00" timeLoss="60.59" speed="1.95" speedRelative="0.70" departed="15" arrived="9" entered="48" left="54" laneChangedFrom="0" laneChangedTo="0"/>
        <edge id="-147066248#9" sampledSeconds="536.07" traveltime="8.03" overlapTraveltime="10.39" density="11.95" laneDensity="11.95" occupancy="4.66" waitingTime="0.00" timeLoss="135.19" speed="2.13" speedRelative="0.77" departed="2" arrived="5" entered="51" left="48" laneChangedFrom="0" laneChangedTo="0"/>
        <edge id="-147067944" sampledSeconds="0.00" departed="0" arrived="0" entered="0" left="0" laneChangedFrom="0" laneChangedTo="0"/>
        <edge id="-148097316" sampledSeconds="0.00" departed="0" arrived="0" entered="0" left="0" laneChangedFrom="0" laneChangedTo="0"/>
        <edge id="-15973619#0" sampledSeconds="2776.72" traveltime="20.79" overlapTraveltime="21.55" density="7.13" laneDensity="7.13" occupancy="3.44" waitingTime="5.00" timeLoss="390.27" speed="7.15" speedRelative="0.86" departed="11" arrived="7" entered="119" left="122" laneChangedFrom="0" laneChangedTo="0"/>
        <edge id="-15973619#1" sampledSeconds="895.24" traveltime="8.38" overlapTraveltime="10.12" density="6.66" laneDensity="6.66" occupancy="2.95" waitingTime="128.00" timeLoss="293.51" speed="5.58" speedRelative="0.67" departed="6" arrived="0" entered="83" left="89" laneChangedFrom="0" laneChangedTo="0"/>
        <edge id="-182623931" sampledSeconds="66.73" traveltime="0.79" overlapTraveltime="1.76" density="5.80" laneDensity="5.80" occupancy="1.38" waitingTime="0.00" timeLoss="12.74" speed="5.33" speedRelative="0.64" departed="0" arrived="25" entered="43" left="18" laneChangedFrom="0" laneChangedTo="0"/>
        <edge id="-199847347#0" sampledSeconds="0.00" departed="0" arrived="0" entered="0" left="0" laneChangedFrom="0" laneChangedTo="0"/>
        <edge id="-199847347#1" sampledSeconds="0.00" departed="0" arrived="0" entered="0" left="0" laneChangedFrom="0" laneChangedTo="0"/>
        <edge id="-199847347#2" sampledSeconds="0.00" departed="0" arrived="0" entered="0" left="0" laneChangedFrom="0" laneChangedTo="0"/>
        <edge id="-22035476" sampledSeconds="0.00" departed="0" arrived="0" entered="0" left="0" laneChangedFrom="0" laneChangedTo="0"/>
        <edge id="-22701813#0" sampledSeconds="0.00" departed="0" arrived="0" entered="0" left="0" laneChangedFrom="0" laneChangedTo="0"/>
        <edge id="-22701813#1" sampledSeconds="0.00" departed="0" arrived="0" entered="0" left="0" laneChangedFrom="0" laneChangedTo="0"/>
        <edge id="-23017852#1" sampledSeconds="143.34" traveltime="0.15" overlapTraveltime="1.12" density="133.33" laneDensity="133.33" occupancy="5.08" waitingTime="13.00" timeLoss="50.39" speed="4.64" speedRelative="0.56" departed="5" arrived="9" entered="127" left="123" laneChangedFrom="0" laneChangedTo="0"/>
        <edge id="-23017852#2" sampledSeconds="1113.71" traveltime="7.05" overlapTraveltime="8.06" density="13.68" laneDensity="13.68" occupancy="6.13" waitingTime="186.00" timeLoss="507.80" speed="4.49" speedRelative="0.54" departed="8" arrived="13" entered="132" left="127" laneChangedFrom="0" laneChangedTo="0"/>
        <edge id="-23017852#3" sampledSeconds="117.04" traveltime="0.03" overlapTraveltime="0.87" density="133.33" laneDensity="133.33" occupancy="4.33" waitingTime="0.00" timeLoss="32.68" speed="6.00" speedRelative="0.72" departed="14" arrived="5" entered="123" left="132" laneChangedFrom="0" laneChangedTo="0"/>