<?xml version="1.0" encoding="UTF-8"?>

<!-- generated on 2025-11-12 10:50:56 by Eclipse SUMO GUI Version 1.20.0
<configuration xmlns:xsi="http://www.w3.org/2001/XMLSchema-instance" xsi:noNamespaceSchemaLocation="http://sumo.dlr.de/xsd/sumoConfiguration.xsd">

    <input>
        <net-file value="/Users/sohamghadge/Documents/Final_Project/TrafficLearningproject/src/scenarios/4x4_grid/osm.net.xml.gz"/>
        <route-files value="/Users/sohamghadge/Documents/Final_Project/TrafficLearningproject/src/scenarios/4x4_grid/high_traffic.rou.xml"/>
        <additional-files value="/Users/sohamghadge/Documents/Final_Project/TrafficLearningproject/src/scenarios/4x4_grid/osm.poly.xml.gz,/Users/sohamghadge/Documents/Final_Project/TrafficLearningproject/src/scenarios/4x4_grid/output.add.xml"/>
    </input>

    <output>
        <tripinfo-output value="/Users/sohamghadge/Documents/Final_Project/TrafficLearningproject/src/scenarios/4x4_grid/tripinfos.xml"/>
        <statistic-output value="/Users/sohamghadge/Documents/Final_Project/TrafficLearningproject/src/scenarios/4x4_grid/stats.xml"/>
    </output>

    <time>
        <begin value="0"/>
        <end value="3600"/>
    </time>

    <processing>
        <ignore-route-errors value="true"/>
        <tls.actuated.jam-threshold value="30"/>
    </processing>

    <routing>
        <device.rerouting.adaptation-steps value="18"/>
        <device.rerouting.adaptation-interval value="10"/>
    </routing>

    <report>
        <verbose value="true"/>
        <duration-log.statistics value="true"/>
        <no-step-log value="true"/>
    </report>

    <gui_only>
        <gui-settings-file value="/Users/sohamghadge/Documents/Final_Project/TrafficLearningproject/src/scenarios/4x4_grid/osm.view.xml"/>
    </gui_only>

</configuration>
-->

<tripinfos xmlns:xsi="http://www.w3.org/2001/XMLSchema-instance" xsi:noNamespaceSchemaLocation="http://sumo.dlr.de/xsd/tripinfo_file.xsd">
    <tripinfo id="19" depart="38.00" departLane="4588219#1_0" departPos="5.10" departSpeed="0.00" departDelay="0.00" arrival="77.00" arrivalLane="1424634884#4_0" arrivalPos="72.72" arrivalSpeed="14.08" duration="39.00" routeLength="308.49" waitingTime="4.00" waitingCount="1" stopTime="0.00" timeLoss="15.92" rerouteNo="1" devices="tripinfo_19 routing_19" vType="DEFAULT_VEHTYPE" speedFactor="1.04" vaporized=""/>
    <tripinfo id="19.1" depart="41.00" departLane="4588219#1_0" departPos="5.10" departSpeed="0.00" departDelay="3.00" arrival="79.00" arrivalLane="1424634884#4_0" arrivalPos="72.72" arrivalSpeed="14.14" duration="38.00" routeLength="308.49" waitingTime="3.00" waitingCount="1" stopTime="0.00" timeLoss="15.52" rerouteNo="1" devices="tripinfo_19.1 routing_19.1" vType="DEFAULT_VEHTYPE" speedFactor="1.09" vaporized=""/>
    <tripinfo id="19.2" depart="44.00" departLane="4588219#1_0" departPos="5.10" departSpeed="0.00" departDelay="6.00" arrival="81.00" arrivalLane="1424634884#4_0" arrivalPos="72.72" arrivalSpeed="13.13" duration="37.00" routeLength="308.49" waitingTime="2.00" waitingCount="1" stopTime="0.00" timeLoss="12.95" rerouteNo="1" devices="tripinfo_19.2 routing_19.2" vType="DEFAULT_VEHTYPE" speedFactor="1.00" vaporized=""/>
    <tripinfo id="3" depart="6.00" departLane="4611711#0_0" departPos="5.10" departSpeed="0.00" departDelay="0.00" arrival="84.00" arrivalLane="-1249342904#1_0" arrivalPos="14.12" arrivalSpeed="8.00" duration="78.00" routeLength="426.72" waitingTime="14.00" waitingCount="1" stopTime="0.00" timeLoss="27.32" rerouteNo="1" devices="tripinfo_3 routing_3" vType="DEFAULT_VEHTYPE" speedFactor="1.03" vaporized=""/>
    <tripinfo id="4" depart="8.00" departLane="1149365724#1_0" departPos="5.10" departSpeed="0.00" departDelay="0.00" arrival="85.00" arrivalLane="-1132167289#1_0" arrivalPos="6.38" arrivalSpeed="6.79" duration="77.00" routeLength="545.34" waitingTime="0.00" waitingCount="0" stopTime="0.00" timeLoss="12.98" rerouteNo="1" devices="tripinfo_4 routing_4" vType="DEFAULT_VEHTYPE" speedFactor="0.89" vaporized=""/>
    <tripinfo id="4.1" depart="11.00" departLane="1149365724#1_0" departPos="5.10" departSpeed="0.00" departDelay="3.00" arrival="87.00" arrivalLane="-1132167289#1_0" arrivalPos="6.38" arrivalSpeed="7.71" duration="76.00" routeLength="545.34" waitingTime="0.00" waitingCount="0" stopTime="0.00" timeLoss="15.99" rerouteNo="1" devices="tripinfo_4.1 routing_4.1" vType="DEFAULT_VEHTYPE" speedFactor="0.94" vaporized=""/>
    <tripinfo id="10" depart="20.00" departLane="375311158#1_0" departPos="5.10" departSpeed="0.00" departDelay="0.00" arrival="87.00" arrivalLane="199847252#2_0" arrivalPos="20.27" arrivalSpeed="12.36" duration="67.00" routeLength="368.64" waitingTime="12.00" waitingCount="2" stopTime="0.00" timeLoss="24.26" rerouteNo="1" devices="tripinfo_10 routing_10" vType="DEFAULT_VEHTYPE" speedFactor="0.97" vaporized=""/>
    <tripinfo id="3.1" depart="9.00" departLane="4611711#0_0" departPos="5.10" departSpeed="0.00" departDelay="3.00" arrival="88.00" arrivalLane="-1249342904#1_0" arrivalPos="14.12" arrivalSpeed="5.63" duration="79.00" routeLength="426.72" waitingTime="1.00" waitingCount="1" stopTime="0.00" timeLoss="15.92" rerouteNo="1" devices="tripinfo_3.1 routing_3.1" vType="DEFAULT_VEHTYPE" speedFactor="0.83" vaporized=""/>
    <tripinfo id="10.1" depart="23.00" departLane="375311158#1_0" departPos="5.10" departSpeed="0.00" departDelay="3.00" arrival="89.00" arrivalLane="199847252#2_0" arrivalPos="20.27" arrivalSpeed="12.06" duration="66.00" routeLength="368.64" waitingTime="4.00" waitingCount="1" stopTime="0.00" timeLoss="19.90" rerouteNo="1" devices="tripinfo_10.1 routing_10.1" vType="DEFAULT_VEHTYPE" speedFactor="0.89" vaporized=""/>
    <tripinfo id="3.2" depart="13.00" departLane="4611711#0_0" departPos="5.10" departSpeed="0.00" departDelay="7.00" arrival="90.00" arrivalLane="-1249342904#1_0" arrivalPos="14.12" arrivalSpeed="7.42" duration="77.00" routeLength="426.72" waitingTime="0.00" waitingCount="0" stopTime="0.00" timeLoss="26.95" rerouteNo="1" devices="tripinfo_3.2 routing_3.2" vType="DEFAULT_VEHTYPE" speedFactor="1.05" vaporized=""/>
    <tripinfo id="20" depart="40.00" departLane="199847252#1_0" departPos="5.10" departSpeed="0.00" departDelay="0.00" arrival="90.00" arrivalLane="-1136657266_0" arrivalPos="64.21" arrivalSpeed="6.59" duration="50.00" routeLength="219.26" waitingTime="12.00" waitingCount="1" stopTime="0.00" timeLoss="23.87" rerouteNo="1" devices="tripinfo_20 routing_20" vType="DEFAULT_VEHTYPE" speedFactor="0.90" vaporized=""/>
    <tripinfo id="17.1" depart="37.00" departLane="1123184404#0_0" departPos="5.10" departSpeed="0.00" departDelay="3.00" arrival="96.00" arrivalLane="1421185260#1_0" arrivalPos="17.40" arrivalSpeed="13.24" duration="59.00" routeLength="614.29" waitingTime="0.00" waitingCount="0" stopTime="0.00" timeLoss="7.08" rerouteNo="1" devices="tripinfo_17.1 routing_17.1" vType="DEFAULT_VEHTYPE" speedFactor="1.03" vaporized=""/>
    <tripinfo id="20.1" depart="45.00" departLane="199847252#1_0" departPos="5.10" departSpeed="0.00" departDelay="5.00" arrival="96.00" arrivalLane="-1136657266_0" arrivalPos="64.21" arrivalSpeed="7.25" duration="51.00" routeLength="219.26" waitingTime="12.00" waitingCount="1" stopTime="0.00" timeLoss="23.81" rerouteNo="1" devices="tripinfo_20.1 routing_20.1" vType="DEFAULT_VEHTYPE" speedFactor="0.88" vaporized=""/>
    <tripinfo id="17" depart="34.00" departLane="1123184404#0_0" departPos="5.10" departSpeed="0.00" departDelay="0.00" arrival="100.00" arrivalLane="1421185260#1_0" arrivalPos="17.40" arrivalSpeed="11.78" duration="66.00" routeLength="614.29" waitingTime="0.00" waitingCount="0" stopTime="0.00" timeLoss="7.22" rerouteNo="1" devices="tripinfo_17 routing_17" vType="DEFAULT_VEHTYPE" speedFactor="0.90" vaporized=""/>
    <tripinfo id="11" depart="22.00" departLane="-831860726_0" departPos="0.20" departSpeed="0.00" departDelay="0.00" arrival="101.00" arrivalLane="-1426897603#3_0" arrivalPos="0.20" arrivalSpeed="6.22" duration="79.00" routeLength="468.29" waitingTime="0.00" waitingCount="0" stopTime="0.00" timeLoss="9.93" rerouteNo="1" devices="tripinfo_11 routing_11" vType="DEFAULT_VEHTYPE" speedFactor="0.83" vaporized=""/>
    <tripinfo id="17.2" depart="40.00" departLane="1123184404#0_0" departPos="5.10" departSpeed="0.00" departDelay="6.00" arrival="102.00" arrivalLane="1421185260#1_0" arrivalPos="17.40" arrivalSpeed="12.01" duration="62.00" routeLength="614.29" waitingTime="0.00" waitingCount="0" stopTime="0.00" timeLoss="6.60" rerouteNo="1" devices="tripinfo_17.2 routing_17.2" vType="DEFAULT_VEHTYPE" speedFactor="0.96" vaporized=""/>
    <tripinfo id="11.1" depart="25.00" departLane="-831860726_0" departPos="0.20" departSpeed="0.00" departDelay="3.00" arrival="104.00" arrivalLane="-1426897603#3_0" arrivalPos="0.20" arrivalSpeed="6.93" duration="79.00" routeLength="468.29" waitingTime="0.00" waitingCount="0" stopTime="0.00" timeLoss="12.99" rerouteNo="1" devices="tripinfo_11.1 routing_11.1" vType="DEFAULT_VEHTYPE" speedFactor="0.87" vaporized=""/>
    <tripinfo id="11.2" depart="31.00" departLane="-831860726_0" departPos="0.20" departSpeed="0.00" departDelay="9.00" arrival="106.00" arrivalLane="-1426897603#3_0" arrivalPos="0.20" arrivalSpeed="6.93" duration="75.00" routeLength="468.29" waitingTime="0.00" waitingCount="0" stopTime="0.00" timeLoss="12.07" rerouteNo="1" devices="tripinfo_11.2 routing_11.2" vType="DEFAULT_VEHTYPE" speedFactor="0.92" vaporized=""/>
    <tripinfo id="5" depart="10.00" departLane="-35557161#0_0" departPos="5.10" departSpeed="0.00" departDelay="0.00" arrival="116.00" arrivalLane="1238797610#2_0" arrivalPos="29.31" arrivalSpeed="5.98" duration="106.00" routeLength="773.18" waitingTime="0.00" waitingCount="0" stopTime="0.00" timeLoss="15.16" rerouteNo="1" devices="tripinfo_5 routing_5" vType="DEFAULT_VEHTYPE" speedFactor="0.86" vaporized=""/>
    <tripinfo id="14" depart="28.00" departLane="43376693#2_0" departPos="5.10" departSpeed="0.00" departDelay="0.00" arrival="116.00" arrivalLane="1426897601#1_0" arrivalPos="10.69" arrivalSpeed="9.03" duration="88.00" routeLength="548.58" waitingTime="7.00" waitingCount="2" stopTime="0.00" timeLoss="22.67" rerouteNo="1" devices="tripinfo_14 routing_14" vType="DEFAULT_VEHTYPE" speedFactor="1.01" vaporized=""/>
    <tripinfo id="5.1" depart="13.00" departLane="-35557161#0_0" departPos="5.10" departSpeed="0.00" departDelay="3.00" arrival="118.00" arrivalLane="1238797610#2_0" arrivalPos="29.31" arrivalSpeed="8.59" duration="105.00" routeLength="773.18" waitingTime="0.00" waitingCount="0" stopTime="0.00" timeLoss="33.02" rerouteNo="1" devices="tripinfo_5.1 routing_5.1" vType="DEFAULT_VEHTYPE" speedFactor="1.09" vaporized=""/>
    <tripinfo id="14.1" depart="31.00" departLane="43376693#2_0" departPos="5.10" departSpeed="0.00" departDelay="3.00" arrival="118.00" arrivalLane="1426897601#1_0" arrivalPos="10.69" arrivalSpeed="10.11" duration="87.00" routeLength="548.58" waitingTime="7.00" waitingCount="2" stopTime="0.00" timeLoss="31.11" rerouteNo="1" devices="tripinfo_14.1 routing_14.1" vType="DEFAULT_VEHTYPE" speedFactor="1.17" vaporized=""/>
    <tripinfo id="25" depart="50.00" departLane="1105574289#2_0" departPos="5.10" departSpeed="0.00" departDelay="0.00" arrival="118.00" arrivalLane="-23017853#0_0" arrivalPos="6.86" arrivalSpeed="8.05" duration="68.00" routeLength="466.68" waitingTime="1.00" waitingCount="1" stopTime="0.00" timeLoss="10.67" rerouteNo="1" devices="tripinfo_25 routing_25" vType="DEFAULT_VEHTYPE" speedFactor="1.00" vaporized=""/>
    <tripinfo id="5.2" depart="16.00" departLane="-35557161#0_0" departPos="5.10" departSpeed="0.00" departDelay="6.00" arrival="120.00" arrivalLane="1238797610#2_0" arrivalPos="29.31" arrivalSpeed="8.20" duration="104.00" routeLength="773.18" waitingTime="0.00" waitingCount="0" stopTime="0.00" timeLoss="27.98" rerouteNo="1" devices="tripinfo_5.2 routing_5.2" vType="DEFAULT_VEHTYPE" speedFactor="1.03" vaporized=""/>
    <tripinfo id="25.1" depart="53.00" departLane="1105574289#2_0" departPos="5.10" departSpeed="0.00" departDelay="3.00" arrival="122.00" arrivalLane="-23017853#0_0" arrivalPos="6.86" arrivalSpeed="7.87" duration="69.00" routeLength="466.68" waitingTime="1.00" waitingCount="1" stopTime="0.00" timeLoss="10.98" rerouteNo="1" devices="tripinfo_25.1 routing_25.1" vType="DEFAULT_VEHTYPE" speedFactor="1.00" vaporized=""/>
    <tripinfo id="23" depart="46.00" departLane="-1424634884#0_0" departPos="5.10" departSpeed="0.00" departDelay="0.00" arrival="125.00" arrivalLane="-43376693#5_0" arrivalPos="35.34" arrivalSpeed="8.32" duration="79.00" routeLength="569.33" waitingTime="2.00" waitingCount="2" stopTime="0.00" timeLoss="22.01" rerouteNo="1" devices="tripinfo_23 routing_23" vType="DEFAULT_VEHTYPE" speedFactor="1.02" vaporized=""/>
    <tripinfo id="39" depart="78.00" departLane="-4611708#3_0" departPos="5.10" departSpeed="0.00" departDelay="0.00" arrival="125.00" arrivalLane="-35557161#2_0" arrivalPos="84.50" arrivalSpeed="8.68" duration="47.00" routeLength="307.76" waitingTime="0.00" waitingCount="0" stopTime="0.00" timeLoss="10.06" rerouteNo="1" devices="tripinfo_39 routing_39" vType="DEFAULT_VEHTYPE" speedFactor="1.04" vaporized=""/>
    <tripinfo id="23.1" depart="49.00" departLane="-1424634884#0_0" departPos="5.10" departSpeed="0.00" departDelay="3.00" arrival="127.00" arrivalLane="-43376693#5_0" arrivalPos="35.34" arrivalSpeed="8.07" duration="78.00" routeLength="569.33" waitingTime="1.00" waitingCount="1" stopTime="0.00" timeLoss="25.38" rerouteNo="1" devices="tripinfo_23.1 routing_23.1" vType="DEFAULT_VEHTYPE" speedFactor="1.10" vaporized=""/>
    <tripinfo id="15.1" depart="45.00" departLane="375312063#0_0" departPos="5.10" departSpeed="0.00" departDelay="15.00" arrival="129.00" arrivalLane="233833576#0_1" arrivalPos="42.69" arrivalSpeed="13.02" duration="84.00" routeLength="674.19" waitingTime="8.00" waitingCount="1" stopTime="0.00" timeLoss="23.44" rerouteNo="1" devices="tripinfo_15.1 routing_15.1" vType="DEFAULT_VEHTYPE" speedFactor="1.02" vaporized=""/>
    <tripinfo id="39.1" depart="81.00" departLane="-4611708#3_0" departPos="5.10" departSpeed="0.00" departDelay="3.00" arrival="129.00" arrivalLane="-35557161#2_0" arrivalPos="84.50" arrivalSpeed="8.20" duration="48.00" routeLength="307.76" waitingTime="0.00" waitingCount="0" stopTime="0.00" timeLoss="9.89" rerouteNo="1" devices="tripinfo_39.1 routing_39.1" vType="DEFAULT_VEHTYPE" speedFactor="1.01" vaporized=""/>
    <tripinfo id="0" depart="0.00" departLane="168515533#2_0" departPos="5.10" departSpeed="0.00" departDelay="0.00" arrival="131.00" arrivalLane="-1132164863_0" arrivalPos="88.58" arrivalSpeed="8.38" duration="131.00" routeLength="906.22" waitingTime="23.00" waitingCount="2" stopTime="0.00" timeLoss="40.89" rerouteNo="1" devices="tripinfo_0 routing_0" vType="DEFAULT_VEHTYPE" speedFactor="1.06" vaporized=""/>
    <tripinfo id="2" depart="4.00" departLane="23017853#2_0" departPos="5.10" departSpeed="0.00" departDelay="0.00" arrival="132.00" arrivalLane="196850609#2_0" arrivalPos="0.20" arrivalSpeed="12.98" duration="128.00" routeLength="737.14" waitingTime="24.00" waitingCount="1" stopTime="0.00" timeLoss="43.11" rerouteNo="1" devices="tripinfo_2 routing_2" vType="DEFAULT_VEHTYPE" speedFactor="1.01" vaporized=""/>
    <tripinfo id="25.2" depart="56.00" departLane="1105574289#2_0" departPos="5.10" departSpeed="0.00" departDelay="6.00" arrival="132.00" arrivalLane="-23017853#0_0" arrivalPos="6.86" arrivalSpeed="7.46" duration="76.00" routeLength="466.68" waitingTime="0.00" waitingCount="0" stopTime="0.00" timeLoss="12.06" rerouteNo="1" devices="tripinfo_25.2 routing_25.2" vType="DEFAULT_VEHTYPE" speedFactor="0.90" vaporized=""/>
    <tripinfo id="2.1" depart="7.00" departLane="23017853#2_0" departPos="5.10" departSpeed="0.00" departDelay="3.00" arrival="133.00" arrivalLane="196850609#2_0" arrivalPos="0.20" arrivalSpeed="14.41" duration="126.00" routeLength="737.14" waitingTime="22.00" waitingCount="1" stopTime="0.00" timeLoss="47.37" rerouteNo="1" devices="tripinfo_2.1 routing_2.1" vType="DEFAULT_VEHTYPE" speedFactor="1.08" vaporized=""/>
    <tripinfo id="15" depart="42.00" departLane="375312063#0_0" departPos="5.10" departSpeed="0.00" departDelay="12.00" arrival="133.00" arrivalLane="233833576#0_1" arrivalPos="42.69" arrivalSpeed="13.80" duration="91.00" routeLength="674.19" waitingTime="10.00" waitingCount="3" stopTime="0.00" timeLoss="29.30" rerouteNo="1" devices="tripinfo_15 routing_15" vType="DEFAULT_VEHTYPE" speedFactor="0.99" vaporized=""/>
    <tripinfo id="26" depart="52.00" departLane="-4611708#3_0" departPos="5.10" departSpeed="0.00" departDelay="0.00" arrival="135.00" arrivalLane="47707170#3_0" arrivalPos="7.62" arrivalSpeed="9.32" duration="83.00" routeLength="601.13" waitingTime="6.00" waitingCount="1" stopTime="0.00" timeLoss="19.10" rerouteNo="1" devices="tripinfo_26 routing_26" vType="DEFAULT_VEHTYPE" speedFactor="1.14" vaporized=""/>
    <tripinfo id="13" depart="26.00" departLane="-1423958087_0" departPos="0.11" departSpeed="0.00" departDelay="0.00" arrival="137.00" arrivalLane="-1424634880#0_0" arrivalPos="75.78" arrivalSpeed="12.37" duration="111.00" routeLength="869.10" waitingTime="13.00" waitingCount="2" stopTime="0.00" timeLoss="28.18" rerouteNo="1" devices="tripinfo_13 routing_13" vType="DEFAULT_VEHTYPE" speedFactor="0.93" vaporized=""/>
    <tripinfo id="13.1" depart="34.00" departLane="-1423958087_0" departPos="0.11" departSpeed="0.00" departDelay="8.00" arrival="139.00" arrivalLane="-1424634880#0_0" arrivalPos="75.78" arrivalSpeed="15.81" duration="105.00" routeLength="869.10" waitingTime="6.00" waitingCount="1" stopTime="0.00" timeLoss="40.63" rerouteNo="1" devices="tripinfo_13.1 routing_13.1" vType="DEFAULT_VEHTYPE" speedFactor="1.18" vaporized=""/>
    <tripinfo id="62" depart="124.00" departLane="-1009114665#0_0" departPos="0.20" departSpeed="0.00" departDelay="0.00" arrival="143.00" arrivalLane="-4611714#4_0" arrivalPos="49.49" arrivalSpeed="6.69" duration="19.00" routeLength="124.84" waitingTime="0.00" waitingCount="0" stopTime="0.00" timeLoss="2.65" rerouteNo="1" devices="tripinfo_62 routing_62" vType="DEFAULT_VEHTYPE" speedFactor="0.94" vaporized=""/>
    <tripinfo id="40" depart="80.00" departLane="1426079060#0_0" departPos="0.20" departSpeed="0.00" departDelay="0.00" arrival="145.00" arrivalLane="-375459783#0_0" arrivalPos="65.61" arrivalSpeed="8.32" duration="65.00" routeLength="404.23" waitingTime="8.00" waitingCount="1" stopTime="0.00" timeLoss="22.13" rerouteNo="1" devices="tripinfo_40 routing_40" vType="DEFAULT_VEHTYPE" speedFactor="1.02" vaporized=""/>
    <tripinfo id="44" depart="88.00" departLane="-1423958087_0" departPos="0.11" departSpeed="0.00" departDelay="0.00" arrival="145.00" arrivalLane="-1151333056_0" arrivalPos="40.54" arrivalSpeed="9.11" duration="57.00" routeLength="416.20" waitingTime="6.00" waitingCount="1" stopTime="0.00" timeLoss="13.92" rerouteNo="1" devices="tripinfo_44 routing_44" vType="DEFAULT_VEHTYPE" speedFactor="1.10" vaporized=""/>
    <tripinfo id="62.1" depart="127.00" departLane="-1009114665#0_0" departPos="0.20" departSpeed="0.00" departDelay="3.00" arrival="145.00" arrivalLane="-4611714#4_0" arrivalPos="49.49" arrivalSpeed="8.50" duration="18.00" routeLength="124.84" waitingTime="0.00" waitingCount="0" stopTime="0.00" timeLoss="4.22" rerouteNo="1" devices="tripinfo_62.1 routing_62.1" vType="DEFAULT_VEHTYPE" speedFactor="1.13" vaporized=""/>
    <tripinfo id="65" depart="130.00" departLane="-4773029#1_0" departPos="5.10" departSpeed="0.00" departDelay="0.00" arrival="145.00" arrivalLane="-1159149106#0_0" arrivalPos="1.92" arrivalSpeed="7.47" duration="15.00" routeLength="117.41" waitingTime="0.00" waitingCount="0" stopTime="0.00" timeLoss="4.56" rerouteNo="1" devices="tripinfo_65 routing_65" vType="DEFAULT_VEHTYPE" speedFactor="1.00" vaporized=""/>
    <tripinfo id="46" depart="92.00" departLane="375311155#0_0" departPos="5.10" departSpeed="0.00" departDelay="0.00" arrival="146.00" arrivalLane="110786129#1_2" arrivalPos="47.51" arrivalSpeed="6.85" duration="54.00" routeLength="230.30" waitingTime="12.00" waitingCount="1" stopTime="0.00" timeLoss="21.51" rerouteNo="1" devices="tripinfo_46 routing_46" vType="DEFAULT_VEHTYPE" speedFactor="0.89" vaporized=""/>
    <tripinfo id="13.2" depart="37.00" departLane="-1423958087_0" departPos="0.11" departSpeed="0.00" departDelay="11.00" arrival="147.00" arrivalLane="-1424634880#0_0" arrivalPos="75.78" arrivalSpeed="15.54" duration="110.00" routeLength="869.10" waitingTime="10.00" waitingCount="1" stopTime="0.00" timeLoss="43.83" rerouteNo="1" devices="tripinfo_13.2 routing_13.2" vType="DEFAULT_VEHTYPE" speedFactor="1.15" vaporized=""/>
    <tripinfo id="40.1" depart="83.00" departLane="1426079060#0_0" departPos="0.20" departSpeed="0.00" departDelay="3.00" arrival="148.00" arrivalLane="-375459783#0_0" arrivalPos="65.61" arrivalSpeed="8.09" duration="65.00" routeLength="404.23" waitingTime="4.00" waitingCount="2" stopTime="0.00" timeLoss="22.18" rerouteNo="1" devices="tripinfo_40.1 routing_40.1" vType="DEFAULT_VEHTYPE" speedFactor="1.02" vaporized=""/>
    <tripinfo id="46.1" depart="95.00" departLane="375311155#0_0" departPos="5.10" departSpeed="0.00" departDelay="3.00" arrival="148.00" arrivalLane="110786129#1_2" arrivalPos="47.51" arrivalSpeed="8.44" duration="53.00" routeLength="230.30" waitingTime="10.00" waitingCount="1" stopTime="0.00" timeLoss="25.77" rerouteNo="1" devices="tripinfo_46.1 routing_46.1" vType="DEFAULT_VEHTYPE" speedFactor="1.07" vaporized=""/>
    <tripinfo id="65.1" depart="133.00" departLane="-4773029#1_0" departPos="5.10" departSpeed="0.00" departDelay="3.00" arrival="148.00" arrivalLane="-1159149106#0_0" arrivalPos="1.92" arrivalSpeed="7.92" duration="15.00" routeLength="117.41" waitingTime="0.00" waitingCount="0" stopTime="0.00" timeLoss="3.72" rerouteNo="1" devices="tripinfo_65.1 routing_65.1" vType="DEFAULT_VEHTYPE" speedFactor="0.97" vaporized=""/>
    <tripinfo id="12" depart="24.00" departLane="66071366#2_0" departPos="5.10" departSpeed="0.00" departDelay="0.00" arrival="151.00" arrivalLane="-47755711#0_0" arrivalPos="5.09" arrivalSpeed="7.35" duration="127.00" routeLength="935.69" waitingTime="7.00" waitingCount="2" stopTime="0.00" timeLoss="30.96" rerouteNo="1" devices="tripinfo_12 routing_12" vType="DEFAULT_VEHTYPE" speedFactor="0.95" vaporized=""/>
    <tripinfo id="46.2" depart="98.00" departLane="375311155#0_0" departPos="5.10" departSpeed="0.00" departDelay="6.00" arrival="151.00" arrivalLane="110786129#1_2" arrivalPos="47.51" arrivalSpeed="7.90" duration="53.00" routeLength="230.30" waitingTime="10.00" waitingCount="1" stopTime="0.00" timeLoss="24.60" rerouteNo="1" devices="tripinfo_46.2 routing_46.2" vType="DEFAULT_VEHTYPE" speedFactor="1.01" vaporized=""/>
    <tripinfo id="50" depart="100.00" departLane="-1105574289#1_0" departPos="4.06" departSpeed="0.00" departDelay="0.00" arrival="152.00" arrivalLane="23017853#0_0" arrivalPos="10.41" arrivalSpeed="8.65" duration="52.00" routeLength="318.79" waitingTime="8.00" waitingCount="1" stopTime="0.00" timeLoss="16.42" rerouteNo="1" devices="tripinfo_50 routing_50" vType="DEFAULT_VEHTYPE" speedFactor="1.10" vaporized=""/>
    <tripinfo id="12.1" depart="27.00" departLane="66071366#2_0" departPos="5.10" departSpeed="0.00" departDelay="3.00" arrival="153.00" arrivalLane="-47755711#0_0" arrivalPos="5.09" arrivalSpeed="8.17" duration="126.00" routeLength="935.69" waitingTime="4.00" waitingCount="2" stopTime="0.00" timeLoss="46.00" rerouteNo="1" devices="tripinfo_12.1 routing_12.1" vType="DEFAULT_VEHTYPE" speedFactor="1.13" vaporized=""/>
    <tripinfo id="40.2" depart="88.00" departLane="1426079060#0_0" departPos="0.20" departSpeed="0.00" departDelay="8.00" arrival="153.00" arrivalLane="-375459783#0_0" arrivalPos="65.61" arrivalSpeed="6.29" duration="65.00" routeLength="404.23" waitingTime="1.00" waitingCount="1" stopTime="0.00" timeLoss="16.71" rerouteNo="1" devices="tripinfo_40.2 routing_40.2" vType="DEFAULT_VEHTYPE" speedFactor="0.89" vaporized=""/>
    <tripinfo id="73" depart="146.00" departLane="1421427239#0_0" departPos="5.10" departSpeed="0.00" departDelay="0.00" arrival="155.00" arrivalLane="233833576#0_0" arrivalPos="42.69" arrivalSpeed="13.74" duration="9.00" routeLength="73.18" waitingTime="0.00" waitingCount="0" stopTime="0.00" timeLoss="2.58" rerouteNo="1" devices="tripinfo_73 routing_73" vType="DEFAULT_VEHTYPE" speedFactor="1.05" vaporized=""/>
    <tripinfo id="15.2" depart="47.00" departLane="375312063#0_0" departPos="5.10" departSpeed="0.00" departDelay="17.00" arrival="156.00" arrivalLane="233833576#0_1" arrivalPos="42.69" arrivalSpeed="12.23" duration="109.00" routeLength="674.19" waitingTime="21.00" waitingCount="3" stopTime="0.00" timeLoss="44.97" rerouteNo="1" devices="tripinfo_15.2 routing_15.2" vType="DEFAULT_VEHTYPE" speedFactor="0.97" vaporized=""/>
    <tripinfo id="44.1" depart="97.00" departLane="-1423958087_0" departPos="0.11" departSpeed="0.00" departDelay="9.00" arrival="158.00" arrivalLane="-1151333056_0" arrivalPos="40.54" arrivalSpeed="8.07" duration="61.00" routeLength="416.20" waitingTime="6.00" waitingCount="1" stopTime="0.00" timeLoss="17.06" rerouteNo="1" devices="tripinfo_44.1 routing_44.1" vType="DEFAULT_VEHTYPE" speedFactor="1.06" vaporized=""/>
    <tripinfo id="50.1" depart="103.00" departLane="-1105574289#1_0" departPos="4.06" departSpeed="0.00" departDelay="3.00" arrival="158.00" arrivalLane="23017853#0_0" arrivalPos="10.41" arrivalSpeed="6.89" duration="55.00" routeLength="318.79" waitingTime="2.00" waitingCount="1" stopTime="0.00" timeLoss="12.80" rerouteNo="1" devices="tripinfo_50.1 routing_50.1" vType="DEFAULT_VEHTYPE" speedFactor="0.92" vaporized=""/>
    <tripinfo id="26.1" depart="55.00" departLane="-4611708#3_0" departPos="5.10" departSpeed="0.00" departDelay="3.00" arrival="159.00" arrivalLane="47707170#3_0" arrivalPos="7.62" arrivalSpeed="8.52" duration="104.00" routeLength="601.13" waitingTime="18.00" waitingCount="2" stopTime="0.00" timeLoss="33.24" rerouteNo="1" devices="tripinfo_26.1 routing_26.1" vType="DEFAULT_VEHTYPE" speedFactor="1.02" vaporized=""/>
    <tripinfo id="73.1" depart="148.00" departLane="1421427239#0_0" departPos="5.10" departSpeed="0.00" departDelay="2.00" arrival="159.00" arrivalLane="233833576#0_0" arrivalPos="42.69" arrivalSpeed="12.46" duration="11.00" routeLength="73.18" waitingTime="1.00" waitingCount="1" stopTime="0.00" timeLoss="3.75" rerouteNo="1" devices="tripinfo_73.1 routing_73.1" vType="DEFAULT_VEHTYPE" speedFactor="0.91" vaporized=""/>
    <tripinfo id="6" depart="12.00" departLane="-1132164893#0_0" departPos="2.41" departSpeed="0.00" departDelay="0.00" arrival="160.00" arrivalLane="-23017852#1_0" arrivalPos="0.20" arrivalSpeed="8.38" duration="148.00" routeLength="925.60" waitingTime="23.00" waitingCount="2" stopTime="0.00" timeLoss="51.68" rerouteNo="1" devices="tripinfo_6 routing_6" vType="DEFAULT_VEHTYPE" speedFactor="1.05" vaporized=""/>
    <tripinfo id="50.2" depart="106.00" departLane="-1105574289#1_0" departPos="4.06" departSpeed="0.00" departDelay="6.00" arrival="160.00" arrivalLane="23017853#0_0" arrivalPos="10.41" arrivalSpeed="9.64" duration="54.00" routeLength="318.79" waitingTime="1.00" waitingCount="1" stopTime="0.00" timeLoss="20.78" rerouteNo="1" devices="tripinfo_50.2 routing_50.2" vType="DEFAULT_VEHTYPE" speedFactor="1.18" vaporized=""/>
    <tripinfo id="73.2" depart="152.00" departLane="1421427239#0_0" departPos="5.10" departSpeed="0.00" departDelay="6.00" arrival="161.00" arrivalLane="233833576#0_0" arrivalPos="42.69" arrivalSpeed="12.94" duration="9.00" routeLength="73.18" waitingTime="0.00" waitingCount="0" stopTime="0.00" timeLoss="2.66" rerouteNo="1" devices="tripinfo_73.2 routing_73.2" vType="DEFAULT_VEHTYPE" speedFactor="1.00" vaporized=""/>
    <tripinfo id="6.1" depart="15.00" departLane="-1132164893#0_0" departPos="2.41" departSpeed="0.00" departDelay="3.00" arrival="162.00" arrivalLane="-23017852#1_0" arrivalPos="0.20" arrivalSpeed="8.56" duration="147.00" routeLength="925.60" waitingTime="22.00" waitingCount="3" stopTime="0.00" timeLoss="56.14" rerouteNo="1" devices="tripinfo_6.1 routing_6.1" vType="DEFAULT_VEHTYPE" speedFactor="1.12" vaporized=""/>
    <tripinfo id="31" depart="62.00" departLane="1426079060#0_0" departPos="0.20" departSpeed="0.00" departDelay="0.00" arrival="165.00" arrivalLane="196850609#2_0" arrivalPos="0.20" arrivalSpeed="12.94" duration="103.00" routeLength="761.04" waitingTime="23.00" waitingCount="2" stopTime="0.00" timeLoss="41.46" rerouteNo="1" devices="tripinfo_31 routing_31" vType="DEFAULT_VEHTYPE" speedFactor="1.02" vaporized=""/>
    <tripinfo id="57" depart="114.00" departLane="4611713#2_0" departPos="2.68" departSpeed="0.00" departDelay="0.00" arrival="167.00" arrivalLane="43376693#5_0" arrivalPos="36.19" arrivalSpeed="7.25" duration="53.00" routeLength="390.59" waitingTime="0.00" waitingCount="0" stopTime="0.00" timeLoss="5.91" rerouteNo="1" devices="tripinfo_57 routing_57" vType="DEFAULT_VEHTYPE" speedFactor="1.01" vaporized=""/>
    <tripinfo id="57.1" depart="117.00" departLane="4611713#2_0" departPos="2.68" departSpeed="0.00" departDelay="3.00" arrival="169.00" arrivalLane="43376693#5_0" arrivalPos="36.19" arrivalSpeed="7.63" duration="52.00" routeLength="390.59" waitingTime="0.00" waitingCount="0" stopTime="0.00" timeLoss="6.23" rerouteNo="1" devices="tripinfo_57.1 routing_57.1" vType="DEFAULT_VEHTYPE" speedFactor="1.03" vaporized=""/>
    <tripinfo id="16" depart="32.00" departLane="1421185267#3_0" departPos="5.10" departSpeed="0.00" departDelay="0.00" arrival="172.00" arrivalLane="66071366#3_0" arrivalPos="66.22" arrivalSpeed="15.37" duration="140.00" routeLength="1293.66" waitingTime="5.00" waitingCount="1" stopTime="0.00" timeLoss="32.93" rerouteNo="1" devices="tripinfo_16 routing_16" vType="DEFAULT_VEHTYPE" speedFactor="1.18" vaporized=""/>